<?xml version="1.0" encoding="UTF-8"?>
<VTKFile type="UnstructuredGrid" version="0.1" byte_order="LittleEndian">
<UnstructuredGrid>
<Piece NumberOfPoints="9072" NumberOfCells="17586">
<PointData>
<DataArray type="Float64" Name="Color" Format="ascii">
2.622565304477247E21
2.7194962948145896E21
2.718599235511439E21
2.7169806481179054E21
2.574451878308468E21
2.7112034471107683E21
2.7148837593769255E21
2.7201550753004457E21
2.5352732958999996E21
2.722953664775053E21
2.720619761872967E21
2.720151431593058E21
2.5948446852817916E21
2.7207199712372804E21
2.720475081598239E21
2.7201249701990724E21
2.570744166483422E21
2.55653837673488E21
2.719685004406507E21
2.714577375298628E21
2.7079160719310193E21
2.7044325734697544E21
2.6974091373012346E21
2.702460750002209E21
2.5872242477773126E21
2.558141274467364E21
2.6886830718522087E21
2.4984047899701176E21
2.54055988307721E21
2.418341945496471E21
2.415946901896926E21
1.0105853327929645E21
2.426054528326749E21
2.0604079586883682E21
1.2738967790719963E21
1.1389916876705281E21
1.0749496135993426E20
3.120471198184505E20
2.820952772277445E21
2.7464463123532643E21
2.2440912238628635E21
2.87943659194296E21
2.732503562577718E21
4.007214723474296E20
1.30744047533474E21
2.3222314697598275E21
2.723488521442516E21
2.729822628035966E21
2.739315126916126E21
2.720778965576696E21
2.4924952980314176E21
2.39804134883545E21
2.734730276538172E21
2.7157821465555606E21
1.5542871405102548E21
7.25653405489099E20
-5.369369283660245E19
-6.080585557341097E19
-6.599779988871196E19
-2.7133669335975653E19
5.2486173915980346E20
2.7226515437500807E21
2.7156401810990647E21
2.718107514336272E21
2.7179201132957275E21
2.711352458108939E21
1.0898492787229124E21
2.0055445237610743E21
1.5902305814751108E21
2.5742032204845007E20
2.4784177044065244E21
1.3243664604625966E21
1.3984955179912793E21
2.4661397199111077E21
1.2400252531188985E20
1.3380573236548838E21
2.5111563923279394E21
2.529290884381024E21
2.3110368098802647E20
2.7951057184559407E21
2.7114548708780393E21
2.743897916802368E21
2.708919659448164E21
2.708991963695421E21
2.7000229969223426E21
2.6983535413961074E21
2.69282661479991E21
2.684815672951308E21
2.693822325630461E21
2.7018555971220595E21
2.710957227180971E21
2.680912057793424E21
2.6745273694475523E21
2.665359130557486E21
2.6537010858141486E21
2.664994457104232E21
2.6823391581956866E21
2.632647380042187E21
2.509391391688866E21
2.655267786180408E21
2.644972242439299E21
2.66581320948207E21
2.656449572059271E21
2.6443903844404046E21
2.377261797588377E21
2.3267899530221016E21
2.3951619567950176E21
2.7101344995331964E21
2.7014304993996424E21
2.6992702288198626E21
2.690691673483062E21
2.525852320685302E21
2.6725375352021236E21
2.6824441321695095E21
2.541132298765056E21
2.6745748789311486E21
2.3420542294836686E21
2.329832740580621E21
2.2589092168480863E21
2.408006641258515E21
2.397394357855894E21
9.75030317845608E20
9.41911842726198E20
6.140149215983912E20
2.5612486698184044E18
2.250484784030385E20
8.733141195036431E20
1.7214580987005397E21
1.6568163414743756E21
2.1863034503793316E19
9.472651894813223E20
2.579433328079951E20
2.5616221775276846E18
1.7834233798136853E21
9.45677246191794E20
1.7643357355246155E20
1.7851457544168745E21
9.917649415411727E20
1.5559667755154647E20
2.3747100632861057E21
1.969350279686715E20
1.350025979336604E21
2.560940374884754E21
1.3344879948338632E21
2.065092776948741E20
2.824457577919419E21
2.700039936492396E21
2.4236069433291377E21
1.2842071607377157E21
2.661956474419332E21
2.677674789464199E21
2.6216808233541897E21
2.6538090235108854E21
2.639288650722798E21
2.6221677487631746E21
2.608761709035334E21
2.488519397876786E21
2.3580006003601194E21
2.596826323911637E21
2.582930291346353E21
2.4650138651516527E21
1.0264813070636299E20
9.34474557877486E20
1.145450169400172E21
1.0361643829203795E21
1.7601990355275174E21
1.8207523207781315E21
1.061896011888661E21
1.0376056252019776E21
1.8131684095489986E21
9.789238850601761E20
1.6346949504272384E20
9.825259794105076E20
1.7278143951587637E21
1.635978891905791E20
1.7791684602085127E21
1.5603495715048944E20
2.082004536852116E20
1.818898054988614E21
1.9803946182997393E21
1.9973880175486952E21
1.7711935310629078E21
1.790118864756657E20
9.677875376651388E20
2.0164373364643796E21
1.7819750838238165E21
9.724538465489363E20
9.441526026400732E19
1.5915852732588147E20
9.793954004606922E20
1.8096796326500544E21
9.822440487059886E20
1.7631960620012978E20
1.8635105255880018E21
9.859462853762525E20
1.8523287954299643E21
1.9678467567299888E21
1.0296871979332845E21
2.0938942465547557E20
1.253453360680582E21
2.2537356159863156E21
1.1734866075039859E21
2.648369960833563E20
1.225465651897223E21
2.367329451218502E21
2.289558706704231E20
2.2998095577736274E21
2.1011645944921034E20
2.494446113393501E21
2.478350863641438E21
2.461739395083919E21
2.3539162548265647E21
2.6898432441692544E21
2.2516725734517344E21
2.199546633927717E21
2.848437224038935E21
-1.3684235435455862E20
2.205641630231916E21
1.9043894809885926E21
2.7239296947568776E21
-2.568709624081869E19
-4.2632763113167315E19
-6.5902218566874327E18
-5.6969849024909814E18
4.121958668571917E20
-2.8198859787571827E19
8.616474120383859E20
2.205844001676894E21
2.09220668007267E21
2.7135573766186667E21
1.2807299657988773E21
1.6145153714265142E21
2.5557403970963416E21
2.5394672574966834E21
2.522322213047087E21
2.7310516963505875E21
2.733759795446677E21
2.7365923705579713E21
-9.88457509906311E19
-8.733819318976956E19
2.677912206957397E21
-4.955932058024771E19
2.696421620719724E21
2.65865439300674E21
-4.775823521285524E19
2.636939311720166E21
1.9712852048583388E21
1.9734813619863295E21
1.978251053637402E21
1.9682602576797156E21
1.739223005522536E21
1.9795273867305102E21
2.012373818230952E21
1.9830029959064734E21
1.9787396268926965E21
2.0142503627417377E21
2.2907825735341372E20
1.0257515860167661E21
1.8641284821403432E21
2.3259951803352446E20
1.9756431862483662E21
1.9737593371598046E21
1.9948997267215617E21
2.0145780151548497E21
1.9868200164135912E21
2.0199832702249607E21
1.9725876398906988E21
1.9755394514961194E21
1.9731514431451633E21
1.972889141808997E21
2.038283185639515E21
1.9847155408567395E21
1.9753643230897428E21
1.8118320782178493E21
2.027364269412075E20
2.0505161997568786E21
1.9893569748309377E21
2.2190999774202914E21
2.2302332334645909E21
2.635885889558219E21
2.6241231329872886E21
2.0245201121921385E21
2.2086593480068524E21
2.0962790739625323E21
1.9771854696598122E21
2.1814840574267081E21
2.1836650604921506E21
2.0992147740481623E21
2.0248078778819797E21
2.0447066068455006E21
1.9439717094855108E21
2.386999139433883E21
2.234356154071116E21
2.1709578205309328E21
2.227598739564421E21
-9.828731825839944E19
-6.9177194096144474E19
-1.9787768175985455E19
-2.41366937243782E19
-6.555429857735222E19
-5.360177456123549E19
-8.834534157246844E19
-8.367409953864065E19
-4.028782998637005E19
2.613456300711919E21
1.7229869494814104E20
2.6953949146492347E21
2.701913062499789E21
2.635988862220882E21
2.606995293407134E21
2.6212337026601357E21
2.6689111853570463E21
1.3156665362429705E20
2.4685365815136506E21
1.2749258266393623E21
-4.380358244137507E19
-5.3264778644974E19
-4.68007070623083E19
1.1845385805896312E21
1.9868444350674026E20
2.5966901180156415E21
2.6118578950788827E21
2.6255669179893945E21
2.407398952492434E21
2.305592696538321E20
1.2605005806184885E21
2.583278051310681E21
2.5887978913423656E21
2.2731964617969408E21
1.1816056708464428E21
2.204653677745427E20
2.254494818794113E21
1.4802579181010764E20
2.589547658218158E21
2.5677724037081585E21
2.5619152224306085E21
2.548139142022016E21
2.580480141072995E21
2.545845173193687E21
2.5474442399083214E21
2.4601718606689495E21
2.4803725250532595E21
2.4442748354508206E21
2.516520603263364E21
2.5611483469804565E21
-6.143927993539087E19
-6.537860927021306E19
-1.3380592676119198E20
2.2041814141757715E21
2.4616443861444555E21
2.4928523360742235E21
2.510085407145453E21
2.5253131694273226E21
2.568966245580338E21
2.539159988046551E21
2.524766363740836E21
2.3841951497452934E21
2.5406108816129686E21
2.554164504629046E21
2.5682981341751993E21
2.5543553382669694E21
2.584327412380968E21
2.412027175251948E21
2.4388978775928713E21
2.611928757995865E21
2.338767679797454E21
2.3163163600887252E21
1.3079600228418834E21
2.0393471270924245E21
2.0217018801582278E21
1.9772500246315598E21
1.9687086679151044E21
1.976620245250071E21
1.9625465667607134E21
1.968543833789529E21
1.9695127603522387E21
1.9602370510990803E21
1.6549589981530982E21
-6.187946005629107E19
-4.293221931439483E19
-3.613265486054674E19
-1.295917691531166E19
-4.508242404019797E19
6.179368219556408E20
-7.04292081838306E19
-4.047635500396268E19
-3.972309573298906E19
-2.1350946616928043E19
-6.175342087301486E19
4.033561011931537E20
1.5196909210669875E21
1.983495800529015E21
2.05845711060728E21
2.0791264262841688E21
-7.724608593881335E19
1.959188573714962E20
1.1506261925479264E21
1.9980007629690113E20
1.0828125841383731E21
2.1242112461791153E21
2.0950919172368386E21
1.770516310739898E20
1.0955056864409335E21
1.869192204696127E20
1.0366412363590178E21
1.9110039265325527E21
1.0998288896187484E21
1.925398458605335E20
2.1224012043582757E21
2.117972148379361E21
2.2695888768436407E21
2.2984051977231042E21
1.868932276110643E21
1.0212788380010031E21
1.5877073401490126E20
1.0721928833638273E21
1.9143901816167205E21
1.0075000263704142E21
1.472273529375095E20
2.0377506456700047E21
2.0561800451509718E21
2.093161073941022E21
-4.2093932756193616E19
-3.3714335656598114E19
-2.5171407097605747E19
2.0800330718934165E21
2.0704872523052496E21
2.0592565848550961E21
1.951909188672796E21
2.0919826478678784E21
2.1026775502949154E21
1.9759030299432366E21
2.2398024672426928E21
2.1629199090075752E21
2.1616226490726679E21
-5.572424931904421E19
2.227091454550021E21
1.1646539950767663E21
2.561524983473483E21
2.44935920685934E21
2.5004828841440324E21
2.5018167710667186E21
2.5082933209445334E21
2.463332706024559E21
2.4953211998909817E21
2.4483612247543104E21
2.4283534823230627E21
2.36384069772938E21
2.3477419527681787E21
2.331559216756856E21
2.2295565650565705E21
2.1508520930754017E21
2.1378885432291956E21
2.1250537536304592E21
2.16260456575838E21
2.1270588391121085E21
2.1155278489062335E21
2.0006849281104573E21
2.1406490963448294E21
2.1774705952951247E21
2.193600924677638E21
2.182413987482618E21
2.212800421373272E21
2.2210952938169164E21
2.2498074422598553E21
2.2394675494691964E21
2.2062089620385875E21
2.1663408960757036E21
2.2837074197146352E21
2.2999171514619745E21
2.31565001391833E21
2.1925115387107898E21
2.222201513523276E21
2.2083241122397928E21
2.19452771688748E21
2.1799701251603728E21
2.080983489426175E21
2.234941817677927E21
2.265798081342658E21
2.2821875206150284E21
2.2227174449189217E21
2.2375310437314732E21
2.252858682878292E21
2.1086620710324092E21
2.2364989487934726E21
2.2083742402230367E21
2.2504054024434585E21
2.266910871365737E21
2.167302369982951E21
2.199068123776701E21
2.2677295107553674E21
2.1374230313822897E21
2.2368715930128784E21
2.2081799986894673E21
2.5240712157515046E21
2.507944579319285E21
2.508424057406859E21
2.4954599362840625E21
2.476240262717026E21
2.3234671124641337E21
2.414832016822202E21
2.3062827569953644E21
2.312751483644215E21
2.332855669852773E21
2.3457479245764606E21
2.361866166324895E21
2.297019141337219E21
2.3303376158565107E21
2.330580365196012E21
2.4298477068280576E21
2.446755284885745E21
2.2926305205117568E21
2.4288723345155445E21
2.414479270626008E21
2.397543347140923E21
2.3810301224608444E21
2.2612333686572127E21
2.364324548442396E21
2.429522442760283E21
2.4465482983333623E21
2.345534731319102E21
2.398411553324682E21
2.3660146481812876E21
2.3798321161838416E21
2.1802794703343806E21
2.2840877308788005E21
2.2992348526507938E21
2.315167312098768E21
1.896502686490703E21
1.7971971917156956E21
1.869294829187686E21
1.927102070784642E21
1.7955277878914934E21
2.0782826388782436E21
2.0056357962833212E21
1.8026053098586995E21
1.3923352346127856E21
1.6342028611207438E21
1.070103568413997E21
-3.01748486007497E19
1.8462760221216177E21
-1.2976950902479702E19
-2.4875691285582524E19
-6.2136793254932595E17
-8.3063686214677412E18
3.421074580415846E20
-1.0245766844538534E19
2.955018000888029E20
-1.51950550170374246E18
-4.1013044862823562E18
7.09548545335277E20
1.7785298838669492E21
2.581475253261147E21
2.5983494502297124E21
-2.1746793721084383E19
-1.4052433465022626E19
-7.3646972007517071E18
-1.110313256597628E19
-9.1825047655820646E18
-3.1575848055885664E19
-9.630978754055965E18
2.0656982750329058E21
2.1165591169359793E21
2.2061003185040287E21
2.1314003782970914E21
2.081122253799453E21
2.0995506120754921E21
2.1130333247412235E21
2.0888914691306692E21
2.0696237696658144E21
2.0835574617376178E21
2.0576658346433726E21
2.0714478342291333E21
2.0490685441498266E21
2.1015556150613542E21
2.090202936507493E21
2.08183769244186E21
2.1047357734034816E21
2.1139527291886221E21
2.1036411084342116E21
2.0906934670497132E21
1.9748930329698928E21
1.9755499979157086E21
1.977690363883801E21
1.9836829478253182E21
1.989872024897229E21
1.993847574540149E21
1.9876811749115846E21
1.981405552053452E21
1.791183376673984E21
2.0314018380979826E21
2.0452192044914686E21
2.0251120725677795E21
2.0174167703396643E21
2.0498961910712602E21
2.002811872816075E21
2.0236339965662155E21
2.0071584363721127E21
1.9907208755267405E21
2.049986051094952E21
2.0411697316641408E21
2.0319022717437406E21
2.040702601288082E21
1.9290306738089034E21
2.0251349569149948E21
2.015645953914313E21
2.023462401495653E21
1.8282924754445064E21
1.9946048424046554E21
1.9060923454442869E21
2.0078579812975082E21
2.0009639780085035E21
1.8568963940762038E21
1.4624088811308542E21
1.5674689059633685E21
2.0402539464360662E21
2.0300339420482815E21
2.0032640593876717E21
2.0076192713952846E21
2.0292704168875196E21
1.9984542842613255E21
1.9789791483799318E21
1.9731513524720267E21
2.026005175376913E21
1.9958184443401216E21
1.9897551515673174E21
1.9795567319821034E21
1.9716730387404216E21
1.9735684174119368E21
1.9803499379758344E21
1.974568974519045E21
1.9856880940575938E21
1.992392280309263E21
1.9772601162855746E21
-3.7126086258182726E19
2.0748641585468043E21
2.0665281409983696E21
1.991176312930643E21
2.072636374027243E21
2.0546556755543455E21
1.9279620439748552E21
1.929071065829418E21
-6.0849231795309998E18
-1.967607791109961E19
-4.844301218111358E18
-2.516150427239259E19
-1.83006378158444723E18
-2.9692465262919733E19
-5.06623599766713E19
-9.967882143375702E18
-3.7685443468089257E18
-9.42242967025592E18
2.599545566285946E21
-5.826612083361521E19
-1.1950403936305544E20
-1.1794024793487415E19
-3.711179284795825E19
-2.861401730076787E19
-2.93548718836884E19
2.1911111676622833E21
1.9797268239266032E21
2.3786452759444796E21
1.1407654840679492E21
1.9429001548879544E20
1.162354412556251E21
2.061395882242426E21
1.089280490108169E21
2.168729381540704E20
2.077319430151677E21
2.1987333270675125E20
2.3213375103970703E21
2.333572624035158E21
2.3066604954722E21
2.3207475856902274E21
-3.5135988193849643E19
-8.956058040575196E19
2.4169231099045814E21
2.37469033302618E21
-9.513116952340449E19
-2.7842334371253654E19
-2.5313798387426095E19
-5.266884955594961E19
-1.4524367892630309E19
-1.9278558383883555E19
-6.302810855303357E19
-4.037322140733056E19
-2.1408222346403942E19
-4.117986090520066E19
2.051874139798587E21
2.1856469947886828E21
2.264898156093836E21
2.2912618286888657E21
2.164200334954713E21
2.1406280252005524E21
9.402131218991857E20
-6.365937406426991E19
-3.768621496859446E19
-1.6916911094898559E19
2.9291918035461194E20
-7.8300358688927242E18
-2.4243575407815357E18
1.272943465757655E21
6.160805961220539E20
-1.4455843012028973E19
-3.505315781092486E19
-2.8749579894530044E19
1.1582685338052067E21
1.3274121755006397E21
-8.8222497357788109E18
-4.316354198566379E19
-2.7181507249305285E19
-4.150578312198736E19
1.0680730252236118E21
1.9978373027889265E21
2.6722640700565144E20
2.2933733238172232E21
2.2558755681212325E21
-5.7021194027349565E19
-5.760615211576577E19
1.906515072083736E21
2.132718252082573E21
2.11444406173279E21
2.154830201991051E21
2.1686827846776833E21
2.1625854068505688E21
2.210306321478602E21
2.1335248601144872E21
2.1289234243108515E21
-1.1990809040089577E19
-5.20509536284434E19
2.042616914139161E21
2.082428514288947E21
2.1893581246185857E21
1.942314820040642E21
2.7720117904965334E20
-4.154924563011298E19
2.5156846558104673E20
-3.7257539492804485E19
-8.032431650405078E19
-1.3992906294709048E20
-2.3075454123048694E19
-2.424953853310052E19
-3.123488716925999E19
-1.6965161803072776E19
2.0601591620140985E21
1.8144364516634725E21
1.8410857795039862E21
2.0320424336924415E21
1.8672948499895846E21
2.1279383564278198E21
2.1402325426546223E21
2.1528417404139442E21
2.459082170862467E21
2.427369952602658E21
2.4616368200691603E21
2.3568221447916044E21
2.3938147824489894E21
2.393608711640889E21
2.415812716487738E21
2.4138550592805515E21
2.150415617359436E21
2.119568113608216E21
2.0902344340704768E21
2.2603871956945157E21
2.2662128723070055E21
2.2897157805885565E21
2.198709318318642E21
2.2342299461750209E21
2.3299209241589713E21
2.1670532898811363E21
2.1802524426821202E21
2.151904425975625E21
2.0249438819253006E21
2.0518975836141715E21
1.8928213112978573E21
2.0019247841286546E21
2.059650058650567E21
2.0301679106717744E21
1.9467618271517802E21
1.9730821241575254E21
2.1147557013102566E21
2.0881797503667266E21
2.061831853055866E21
2.3773256782793545E21
2.3971437590682896E21
2.413290258918569E21
2.0340040609258828E21
1.624215900157878E21
1.8502684219536848E21
1.7552835065921405E21
1.7202588034685668E21
1.6543980452397593E21
1.7669591167610124E21
1.6189675692109361E21
1.7179024605290952E21
1.8135893220524973E21
1.5797309778146044E21
1.5197200499041037E21
1.6331454051493743E21
1.9237180303717121E21
1.9249330140038024E21
6.049607314364274E20
-1.63807700279153638E18
-2.17826223574035584E18
2.5572057486962842E20
5.292646694063848E20
1.2228268177977028E21
1.582444963236044E21
1.4979189094526256E21
9.243142041879356E20
8.09142267275324E20
1.4169312701468914E21
-2.9654116025352525E18
-1.43673326846529766E18
-1.1230241378287369E18
-1.3071534367518734E19
1.082718651795618E21
-4.2153380832612439E18
-6.1502890539489024E18
-1.804595886060644E19
-6.9229814889531054E18
-1.1143715461331143E19
-3.7098847853074673E18
-6.0364519832374395E18
-2.4677791305098604E18
-4.3844112741763318E18
2.0600873597901668E21
2.072891189858497E21
1.9801438670438833E21
1.9974054322795674E21
1.6387112065502043E21
2.0083852111676241E21
2.0159497766489531E21
1.881442072164613E21
1.7873601407333976E21
1.688320382572847E21
1.7581621522043337E21
1.726902013584531E21
1.4272582102305884E21
1.669978342363115E21
-1.3478390724703693E19
2.0124526601592103E21
1.9975586020783515E21
-2.1860600722913268E19
-7.4529368405544243E18
-4.5201768853597916E18
1.447383905101603E21
1.3904571380263936E21
1.9254173717434196E21
1.9162141496833865E21
1.9024725468682128E21
1.7891492945605115E21
-1.0241143896202248E19
-6.2893455465765509E18
-3.37613609424717E18
-8.211150054895531E18
-3.1647687521552174E18
-2.3091042431081917E18
-1.2421444445692955E19
-8.2714850253093652E18
-1.2460750700580538E19
-1.0796434159150516E19
-9.1517958413079337E18
-2.25689496306261171E18
-3.8576028710500756E18
-2.24103165002826573E18
1.7001975522388908E21
1.7272946097097435E21
1.7540750236799072E21
-1.3235262127152923E19
-1.1532103016426015E19
-6.7267129450528696E18
-1.0579911554062125E19
-1.4203281515145583E19
-5.035562115026085E19
-3.007245302366745E19
-4.650344332684939E19
-5.252645273471339E19
-4.96922381092965E19
-2.7980867269925384E19
-1.3467934337044888E19
-8.6134613892455967E18
-4.231399048578093E19
-4.1758641767624484E18
-4.7821038445261036E18
-2.187902177463225E19
-7.1032238153904138E18
-6.792543874532992E18
-1.105940006992193E19
-1.3692336332564015E19
-6.0675826373034312E18
2.0337323912903648E21
1.884136580287992E21
1.965290026334126E21
1.9907255602701468E21
2.012473603059473E21
-1.5302042970539964E19
-6.1930069207852769E18
2.378122885253646E20
-7.7534419349429184E17
8.684242469235784E20
1.9144255675179332E20
-1.0733832885380323E19
-3.3249946788458476E18
-7.445524071047682E18
5.1497869574367655E20
9.110046279643472E20
-1.5815253472805399E18
-6.8028658513092844E18
1.0953901592797749E21
1.2167865535759225E21
-1.666095019392287E19
-1.0892419187522914E19
-1.6827273949215971E19
-1.7401824005178522E19
-1.5548440676418206E19
-5.1275607231932105E19
-2.7893731186543722E19
-3.909175906786456E19
-1.7821312349901744E19
-2.4557284708623356E19
-6.2473331605562644E18
-5.180003470072284E19
-1.7333405081267603E19
-1.5608009182505204E19
-1.427177871777655E19
-1.1449219538418072E19
-7.5255962379981445E18
-1.3008038752428161E19
-5.4055905715861166E18
-4.2446490106727112E18
1.6138450161084654E21
1.780826402343652E21
1.641197772074825E21
1.6683073499734032E21
2.0047290006113272E21
1.9470005041490934E21
1.974550032316061E21
1.9188089551808351E21
1.9180945312693913E21
1.8079377250737715E21
1.6957023244985796E21
1.8350326083584994E21
1.8620444506834348E21
1.889415906783813E21
1.7769115253977202E21
1.9400402410921869E21
1.886986259122692E21
1.914207176585044E21
1.8596511213787795E21
1.8040589773203128E21
1.8318134652463712E21
1.7454218670313843E21
1.6184224401780845E21
1.4671404906531465E21
1.490396285601432E21
1.4880543063620602E21
1.3619868903732908E21
1.5852573447122922E21
1.6811272224642462E21
1.481471062692539E21
1.755281594624709E21
1.7855233938789695E21
-1.34918924337107942E18
-2.5182772623263867E18
2.2627639798509335E20
-8.87815382134912E16
1.2510148915974743E21
9.610587520300985E20
7.181002372310671E20
4.6948360385491E20
1.3400322040324007E21
1.1924496300415802E21
1.0632896852261211E21
8.707214343775863E20
-7.5192202433611507E17
-5.7498351395425888E17
-4.3704764663727959E18
-6.859226937826303E18
-5.8653396425351741E18
-6.0028940387016018E18
-4.4145918138369746E18
1.502550696325252E21
1.6375374677981677E21
1.558812751067915E21
1.602145307577289E21
1.3118488378278368E21
1.5547720565650838E21
1.382577538535101E21
1.520527786031463E21
1.4109128649590773E21
1.5696342514749856E20
-3.9459859172724055E18
-2.08099507979698176E18
-1.72788605187963674E18
-8.151369126986366E18
-5.0363237691068836E18
-1.88055387406079974E18
-9.6793595929287578E17
-3.3808788374076093E18
-7.4081830149311181E18
-1.5463144088531689E18
-3.5824996003764475E18
1.3534190932524194E21
1.3215426163161928E21
1.2663646782709574E21
1.2315773747023145E21
1.2404120167689578E21
1.659456909316056E21
1.7843801883089948E21
1.7740021077981384E21
1.8191513239100276E21
1.842322077519794E21
1.75908308721021E21
1.864348411757119E21
1.740957995872517E21
1.7212227381342852E21
1.4568372329222276E21
1.5474196276045747E21
1.6417041782589266E21
1.587442405797261E21
1.5067196670357235E21
-1.04311063856898829E18
7.1058218578868032E17
-1.31722514801862682E18
7.7235950533456742E17
-1.32470227384246298E18
-4.1134408782705946E18
-2.6003104050860524E18
-3.1739646854575519E18
-4.6755174863387443E18
-2.6908203716441984E18
-7.5017787773832223E18
-1.45869062460108595E18
1.6651517142385117E21
1.5853749157109915E21
1.474706194785105E21
1.5034010210891137E21
1.6388795298270478E21
-5.9802927323323197E18
-3.7424055539748122E18
-5.123281979697237E18
-5.5794093896390502E18
-1.105808015099111E19
-9.808289528352424E18
-4.006183606618475E18
-1.3921472267061344E19
-1.1575231043089547E19
-4.366871434681492E18
-4.7300889338095688E18
-9.87405936027163E18
-4.4302152319881052E18
-6.067242798826964E18
-5.6842116985229548E18
-3.3397840253938811E18
-1.6472114378707999E19
-3.6654113114459837E18
4.144300351540845E20
6.688154566289241E20
3.428831245735737E20
7.5201376171442E20
9.238941989176552E20
1.0178663723016566E21
1.1173832812225829E21
8.283992305433511E20
-2.4721222052885868E18
1.34035587118371E20
2.863175501092688E20
-2.9318425542008018E18
-4.7630495119956695E18
-3.618193012882367E18
-3.5208672605614454E18
-2.9701846218627026E18
-1.5717600559308102E19
-1.1536441729243218E19
-7.8819740016277268E18
-6.6643353380443761E18
-6.7599287777813545E18
-9.254581919918586E18
-7.3410731406440991E18
-4.1917031706157409E18
-9.90813572893355E18
-8.5512514002381752E18
1.5582287232359884E21
1.5308888510474121E21
-1.49715627206286438E18
1.9980355241260614E20
1.723046212725671E21
1.5856513423663487E21
1.7497953810971458E21
1.6124301514256865E21
1.7702553018021207E21
1.7953152736571302E21
1.6325473730905965E21
1.6560758361057932E21
1.719028349850389E21
1.692005214238292E21
1.609107660438512E21
1.584730719663818E21
1.5574434581231113E21
1.33328798921639E21
1.0214868464046651E21
1.1863980959420533E21
1.339030578900001E21
1.359502747856202E21
1.4214126778881912E21
1.6484694593750588E21
1.5617614449794438E21
-1.34387552652994739E18
-1.9337679085482391E18
-8.4250887075044544E17
-7.9248713075049818E17
1.7668600053010792E20
-6.8723133712801216E16
1.2387366445916254E21
1.0716240650864347E21
4.1634285183539616E20
6.43961021416651E20
5.7610957007736334E20
7.902442654362932E20
8.945820469532572E20
7.008118269972965E20
-1.02539794210867162E18
-1.54742451687833165E18
-4.4736601945850342E18
-3.3545533405965225E18
-1.69255421785103693E18
-1.44679284111241856E18
1.482044076199319E21
1.437395914221913E21
1.207841086277354E21
1.0390181389687662E21
1.1158130516317804E21
1.4438696418113815E21
1.274096180729781E21
1.3047545962487934E21
1.3718805561646742E21
1.268082333242458E21
-1.04956687125061747E18
-1.75034767085217357E18
-3.0758637738418703E18
-2.7983341408228101E18
-3.5996301565246961E18
-4.9078493379094129E18
-6.2093989665084058E17
-1.3469573685707753E18
-2.24996690641920435E18
1.1402789635613303E20
1.1230185569030401E21
1.1998285524205644E21
1.1456511724231279E21
1.2140083055740356E21
1.3000350750164845E21
1.1133441765475341E21
1.1076838784537197E21
1.0085173147825866E21
1.1845122220596808E21
1.122187043211821E21
1.0253978993971829E21
1.0801845373254538E21
1.0978387572420385E21
1.0014504688862491E21
1.7009114580514722E21
1.678906987670128E21
1.522682727844972E21
1.6486782970007957E21
1.6381411059150695E21
1.6228785957600554E21
1.6049465872790163E21
1.5673505278821956E21
1.5868855603438307E21
1.382003143485868E21
1.2651953402322753E21
1.5218523026572577E21
1.4562365683386252E21
1.403825862891899E21
1.3374347965931895E21
1.458266458591888E21
1.3503301086910598E21
1.3997691741838715E21
1.4148148210670122E21
1.3373597347709188E21
-2.49967795913685536E17
-8.4215492189008064E17
-3.925377410446311E17
-2.4259817269515761E18
-2.49825297033117344E17
-9.8191707537798899E17
-1.26713794381662438E18
-6.7540577351776141E17
-4.3763075619476925E18
-3.2425449534786688E18
-2.8266872053563387E18
-7.9419421342926938E17
-2.3285060597805041E18
-2.4223906275712976E17
-8.6449611144499392E17
6.8239885994719219E17
-6.2071209486986765E17
-8.334201376938977E15
1.531813978263435E21
1.3378299228471356E21
1.368411774997286E21
1.3974839846894145E21
1.4248752917892088E21
1.4518545237267398E21
1.5053586948211818E21
1.4787959826772842E21
-2.23418607111389722E18
-4.0393072879913405E18
-1.95978475296192384E18
-2.24160974525170483E18
-1.0925455264427805E19
-4.1207291924209628E18
-2.4532452526813957E18
-3.8079844863177969E18
-4.0847826494189706E18
-3.500927345778283E18
-3.8563525355389199E18
-4.8786670365224131E18
-4.1609349682423485E18
-1.9500233690797975E18
-5.0157250796366162E18
-3.4172214018466739E18
-5.3012097846091233E18
-2.0952360752113303E18
-2.18599259627649408E18
5.4686556574321417E20
4.5933959676970507E20
6.447602273003311E20
7.18726199716303E20
9.652773035650215E20
8.978625721628653E20
9.124032890485047E20
7.672655228768814E20
5.526114753797413E20
2.4348181106682053E20
3.912750250209894E20
-2.637475568973419E18
-6.3366513836979845E18
-2.1851058940621161E18
-1.39729913382167782E18
-4.9739615619797146E18
-2.27236459046315238E18
-8.2372329348152084E18
-2.7744031474927043E18
-3.6138463903621524E18
-3.2125466160211482E18
-3.641321280729772E18
-1.70301722376477312E18
-1.56952946138783923E18
9.959699958696374E20
9.596911399968751E20
3.691758937627152E20
5.085477958964887E20
3.250251179669842E20
6.0090623219935432E16
-2.21509488391547872E17
1.5434030026653005E20
-2.06218798415078624E17
1.5464861910325152E21
1.5252985994796464E21
1.5033536575962525E21
1.4808575466712096E21
1.430770758791199E21
1.4561986244956665E21
1.1519994520616432E21
1.2229422835084912E21
-1.8028382434445719E18
-2.6681962350908544E18
-1.96929058570943078E18
-1.63885450843630822E18
-1.2473824020433856E18
-5.002613866600089E17
-4.9376159126602643E17
7.913046944010607E20
6.171493903247175E20
-2.2931369369750064E17
-3.9237557341652055E18
-3.9172302679302825E18
-1.23848198925764173E18
-7.7469795599015066E17
-3.6658351646009856E17
-2.6839585006822077E18
-2.1862562773953943E18
-2.5945950465871222E18
1.2388064244562739E21
1.327919272450403E21
1.0297034591628641E21
1.1762393970061511E21
1.225690266255994E21
1.2062300153070425E21
1.1712484017196338E21
1.1311943265327662E21
-7.2202204688645312E17
-9.140745752512585E17
-3.920418334743017E18
2.0872431888611144E20