<?xml version="1.0" encoding="UTF-8"?>
<VTKFile type="UnstructuredGrid" version="0.1" byte_order="LittleEndian">
<UnstructuredGrid>
<Piece NumberOfPoints="9062" NumberOfCells="17586">
<PointData>
<DataArray type="Float64" Name="Color" Format="ascii">
3.526087835425703E21
3.584336449496031E21
3.582977309234601E21
3.580032389067134E21
3.50833769560208E21
3.570794444196235E21
3.574214991150284E21
3.5810948824929104E21
3.431281669445672E21
3.578473620064468E21
3.577380894098829E21
3.582439418778498E21
3.514523705443874E21
3.583824536621778E21
3.582118295221188E21
3.580896550093784E21
3.492442409937413E21
3.46826953313637E21
3.578582898142427E21
3.571398754464756E21
3.5631755167660785E21
3.552545649460096E21
3.5431239441531467E21
3.556810472022924E21
3.502630231441335E21
3.4754381595870647E21
3.5326832957188934E21
3.484352214953271E21
3.5017496823684315E21
3.459553186753421E21
3.437332116179202E21
1.4254737123283858E21
3.478258386283856E21
2.740578416220408E21
2.0078748087745514E21
1.2363899672276873E21
1.1662484806907473E20
1.3405160367089369E20
3.5512819526940476E21
3.565702552708321E21
3.0521920643900296E21
3.5569528936573357E21
3.522841503341259E21
1.3686869100834369E20
1.7935683685788777E21
3.4488819383990773E21
3.573809962008376E21
3.5731775290614853E21
3.56758879569455E21
3.565061048645372E21
3.375028681947604E21
3.2491940522270796E21
3.5570576476135054E21
3.5513395666361175E21
2.2240622762584087E21
1.0556940281529816E21
8.037494084952144E19
8.579924297001234E19
8.664453867178813E19
8.455813636564886E19
8.248049833548389E20
3.5574444736715544E21
3.571581308193813E21
3.5707678983354733E21
3.5692352624414934E21
3.560013491262636E21
1.672034854406497E21
2.822533997571689E21
2.364829748644098E21
1.6391341129983273E20
3.4440785393991565E21
1.7847645826795435E21
1.773375939036469E21
3.4209822316949904E21
1.6757088458926434E20
1.7608892774979406E21
3.4099527355101007E21
3.3772397983455516E21
1.4380239083031893E20
3.5397758467462036E21
3.535715002496444E21
3.538901204488815E21
3.547559730980051E21
3.549353492099977E21
3.533764288396162E21
3.534468150430075E21
3.517901406052529E21
3.5133236087642574E21
3.4955518373082683E21
3.519493998658011E21
3.540105447649828E21
3.4899661546767977E21
3.497446395767114E21
3.4788547443124716E21
3.464629737914693E21
3.4836782818644035E21
3.513131832880882E21
3.4344715517486836E21
3.38358125071479E21
3.4737904906785333E21
3.452520542223433E21
3.48748864971852E21
3.468492401358163E21
3.447854421489813E21
3.336422261979486E21
3.2539699478771275E21
3.388801952697796E21
3.558109736420705E21
3.5442418392915756E21
3.538260995263251E21
3.5295435159119913E21
3.4187948260244676E21
3.5050650352328025E21
3.5161619033907585E21
3.4494673604900123E21
3.5019518200777005E21
3.4391441559605006E21
3.4315102624465955E21
3.4236255291139954E21
3.4416994153507455E21
3.411634081815473E21
1.1526029199652087E21
9.986558874463703E20
7.743577484986276E20
1.760034718172394E19
4.025819503765645E19
9.385501314115481E20
2.2983205148315149E21
2.2971093561489658E21
1.8888041764971213E19
1.1638177584588337E21
3.90380192049387E19
1.8426708573938532E19
2.3068124204335416E21
1.1715844060477317E21
4.257958268467959E19
2.3169485577153924E21
1.1771024125544302E21
4.628485569261875E19
3.3470989140858183E21
1.5393114971970798E20
1.7466424886158646E21
3.35040766359129E21
1.7241595605324286E21
1.3965661106806845E20
3.4311522928739174E21
3.397078962884045E21
3.327092942862239E21
1.6959456841015506E21
3.455404048986514E21
3.4655636260119343E21
3.3998024521550445E21
3.439675364854056E21
3.415204227252905E21
3.411360759092531E21
3.3922838386062823E21
3.3435373896490156E21
3.3130765654670353E21
3.3666263553998974E21
3.3462562057088386E21
3.2955360199918805E21
4.5731237578783785E19
1.1613941284813442E21
1.5391537126751687E21
1.2558429783457572E21
2.3076124080104142E21
2.3014991928373677E21
1.1757381340606874E21
1.1747166993142919E21
2.2948256958726663E21
1.1709773058877152E21
4.287889196123567E19
1.1753080591478307E21
2.2980115081965247E21
4.863036358183125E19
2.2952865756303608E21
5.307422454169437E19
4.643598500147436E19
2.2938837465281916E21
2.3192417574737897E21
2.3213509395579816E21
2.3008783988424738E21
4.581061712392608E19
1.1676875092390821E21
2.3202483747808239E21
2.2947671480339362E21
1.170229065013933E21
5.002904042643362E19
4.953987878856933E19
1.1828383173050963E21
2.3377479149541332E21
1.1901004485478294E21
4.936052630413636E19
2.394644165986664E21
1.210324774156092E21
2.3760170125087033E21
2.4159636412048527E21
1.224238532989307E21
5.1274576621990306E19
1.5726064468464608E21
3.095523490752303E21
1.5971116492721708E21
1.1222644834888124E20
1.549930310127277E21
3.0298593607785576E21
1.1008030547522906E20
2.9847030483101973E21
1.033762642186571E20
3.196615864805532E21
3.167123401240627E21
3.141026202976976E21
3.097931572626826E21
3.523465472832237E21
3.3868501345860735E21
3.3202655611117775E21
3.512118678715688E21
9.383787118162243E19
3.104665522117639E21
2.7911786985863213E21
3.5208730631613883E21
8.146318520871041E19
8.400624923007897E19
7.650494211046236E19
7.60006304467319E19
6.893460889508366E20
7.894890398842105E19
1.3972744235868684E21
3.250364202947652E21
3.04392496369182E21
3.561006730916455E21
2.0322037557408972E21
2.5079413689407625E21
3.2876163083021944E21
3.258902871916851E21
3.237718844704608E21
3.4946892582311323E21
3.500825490507552E21
3.473115439521499E21
9.636506841678768E19
9.34932812275647E19
3.4670286246850923E21
8.19611053205966E19
3.439912857037471E21
3.4302278167928934E21
8.607197529975982E19
3.42405500886866E21
2.3563652246247889E21
2.3634848966288327E21
2.3704534845834134E21
2.3500783530916328E21
2.13362298123785E21
2.3277020883202524E21
2.3192080932148717E21
2.3237795452213104E21
2.3271438043004126E21
2.320546972926963E21
4.445608614333175E19
1.199392834050038E21
2.3527469298344817E21
4.3522090405978415E19
2.3340510555500962E21
2.3367213945381698E21
2.327915315191253E21
2.3226089127796518E21
2.330069211913999E21
2.3387006348868104E21
2.3307550695980555E21
2.329218026823544E21
2.3373640077055005E21
2.3359531603331724E21
2.3208789367079502E21
2.3297030902196273E21
2.339281982870113E21
2.326156869215521E21
4.5592703763757105E19
2.339722354437302E21
2.349385659910082E21
3.283596039316386E21
3.324895560339604E21
3.430894411857912E21
3.406359809709731E21
3.062852369483475E21
3.193842835132576E21
3.341520505221828E21
3.2543053638045826E21
3.421593022169744E21
3.404322107648423E21
3.399160995137081E21
3.388998166434843E21
3.4153466892592323E21
3.4356551821466246E21
3.38716266720502E21
3.358277363354179E21
3.4018584945901757E21
3.380233033822558E21
1.9137309838694412E19
5.8068545190457129E18
9.1792248361751511E18
9.750128258063632E18
2.7066755239628177E19
2.4506206606352187E19
1.7783391144986677E19
2.444498954687658E19
1.1893457234578897E19
3.373985522740667E21
1.293587145330141E20
3.399258123698845E21
3.359267808064938E21
3.357017550621763E21
3.3461327200446594E21
3.3891360153497434E21
3.3164128060513164E21
1.2900531119210927E20
3.277098173429294E21
1.6744629275914907E21
8.215621106554475E19
8.57813923224427E19
8.425905512987664E19
1.5183563699780313E21
1.0477304840472481E20
3.3543906067669493E21
3.381328828970697E21
3.270982607048285E21
3.2244494359071335E21
1.3147703503022829E20
1.6495329467487038E21
3.2632617421542025E21
3.2219271665799025E21
3.1916695462394777E21
1.621681271262389E21
1.2807088932095438E20
3.1439987180841536E21
1.2357395376830213E20
3.3284944595627745E21
3.309294774957939E21
3.27898604835528E21
3.246832538765695E21
3.2969131757908986E21
3.2132737195959653E21
3.173647701256912E21
3.1306622448065635E21
3.1525545315389853E21
3.099606138876856E21
3.1965607806594444E21
3.1182657284494564E21
6.6387677061009646E19
6.3927804368859824E19
6.857707293778614E19
3.245509849476229E21
3.1377069387188305E21
3.1907182169425974E21
3.219024596075234E21
3.2426274842648636E21
3.3146597084943913E21
3.264869012173163E21
3.247652195867377E21
3.146740954360558E21
3.2710486400612937E21
3.2980534705953833E21
3.319747138422434E21
3.293059735909176E21
3.340718459985858E21
3.201618725528784E21
3.254153001065857E21
3.386355874446413E21
3.2711595465132805E21
3.2161955793265843E21
1.6072288515467764E21
2.3267114318402455E21
2.3264372376285565E21
2.3435835352181606E21
2.338773598886758E21
2.3315511891822932E21
2.3346219003483775E21
2.3497509478203652E21
2.3439643050426255E21
2.337785749363988E21
2.039252195028433E21
2.25700317911855E19
2.843416514569146E19
2.261783950627661E19
2.6412329009608688E19
2.7269423672604623E19
7.606538114702913E20
2.4380020730214216E19
2.4727734949820273E19
2.7048682738282664E19
2.151765545972079E19
2.019026690035345E19
5.084195204568249E20
1.866958056333757E21
2.3307856341330373E21
2.3524541481302835E21
2.369466016435917E21
2.8353978874203247E19
7.782511939019599E19
1.3926756649657615E21
8.0645895376885E19
1.3673679514650964E21
2.6990435401026125E21
2.6533003550442253E21
7.71438591002437E19
1.3450340763117832E21
5.4279795025996325E19
1.2372199047992862E21
2.442357457291458E21
1.2509186541776874E21
5.712914884282705E19
2.430792512295102E21
2.459359530056843E21
2.7122818799631587E21
2.670752822776253E21
2.4721789172058455E21
1.264464093703796E21
6.745732422317945E19
1.2841924085327874E21
2.5429075651286134E21
1.299969809278108E21
6.831006296066745E19
2.407314709512119E21
2.4265301787740083E21
2.3870116816432194E21
3.013477582508497E19
2.7477927403367723E19
3.1696237504010064E19
2.530254254286307E21
2.5122297125308324E21
2.498278216887137E21
2.4235928439749864E21
2.5452917361351763E21
2.5653427742791565E21
2.459718993416312E21
2.6318570893223285E21
2.5923664443790857E21
2.618672087546837E21
6.013757602415481E19
2.933107247047095E21
1.4907797541732934E21
3.0637633457743934E21
3.012059791255845E21
3.1621288107739107E21
3.1428827868131067E21
3.175499235672197E21
3.121730951422278E21
3.1079336076639265E21
3.0897143674822507E21
3.0691071361918273E21
2.979923569873776E21
2.950321685287902E21
2.9264494313211445E21
2.877651983812195E21
2.634123938528126E21
2.6114614337280016E21
2.595103865229304E21
2.651246723160404E21
2.6026041098105903E21
2.581954563690394E21
2.497961151061193E21
2.61587088434605E21
2.6759599731987505E21
2.6948327111401905E21
2.669482010985195E21
2.713627285169346E21
2.73964623419069E21
2.786324431461472E21
2.7595830500390816E21
2.7201092068567066E21
2.6573547216191656E21
2.8474550730257256E21
2.875880077302375E21
2.8988376520103795E21
2.69993991531321E21
2.745549728464019E21
2.7298704200862715E21
2.7044724093722165E21
2.685260274827141E21
2.6288495344104804E21
2.7665068023023723E21
2.81438203741487E21
2.8360818875254576E21
2.750728198547737E21
2.7756217011595017E21
2.798075476513709E21
2.6752256630265453E21
2.772053315666282E21
2.724846267940846E21
2.793197168036592E21
2.8197204250990907E21
2.7744728354139155E21
2.823657260674582E21
2.823693791638569E21
2.7246205328230507E21
3.0601670146158237E21
3.0072723612714376E21
3.2277948873348077E21
3.208097293402573E21
3.213255484440959E21
3.184912345821753E21
3.1614442692685553E21
3.044578053518291E21
3.0457502971402445E21
2.857605915704921E21
2.886892697108567E21
2.9082513627350423E21
2.938614670192326E21
2.9605572770168507E21
2.8647718007661894E21
2.9161179572432184E21
2.922119597224935E21
3.0895064116451014E21
3.1125348055404317E21
2.985450804628445E21
3.077265198227919E21
3.0584070124131954E21
3.0334765215974986E21
3.0041473412622E21
2.9321923400825496E21
2.9744444704571906E21
3.0833077904089164E21
3.106152802853017E21
2.9460351825598685E21
3.022142951625781E21
2.968570990269919E21
2.998802677359494E21
2.9453978955554777E21
2.8416737688243504E21
2.8696221096505995E21
2.8933825376059E21
3.4454073707842697E21
3.4642071918382956E21
3.4326979867000035E21
3.35946514416569E21
3.2475339229896633E21
3.3185739101949904E21
3.1574450546903147E21
3.092955685153009E21
2.2925949158295048E21
2.6194108297475984E21
1.8039177556400692E21
8.294224711751115E19
2.843508015715393E21
8.247457425691016E19
8.215387767292566E19
1.0177745277825825E20
1.0033243865240392E20
6.477378242173866E20
8.802863329856958E19
6.112560895711212E20
1.1561992972399026E20
1.0611795500802966E20
1.2546284613353905E21
2.8874827077246114E21
3.3362088892017604E21
3.3621371622712924E21
7.470213936724874E19
6.344436118584913E19
7.929920599731257E19
9.366702219451707E19
8.173916075721902E19
7.354722413462183E19
7.979096261432856E19
2.45269645176428E21
2.488636987991984E21
2.519935101260351E21
2.5112786789744986E21
2.499461734491473E21
2.5323262390803424E21
2.5734161744556867E21
2.518949751687868E21
2.509396339267712E21
2.523736887366338E21
2.4926274617693087E21
2.5056307348524745E21
2.475474917871609E21
2.5576548043480823E21
2.542605141098396E21
2.527119657159322E21
2.5614122665843533E21
2.577383879980247E21
2.5529773276231563E21
2.5384381277020524E21
2.3627658078164977E21
2.3553545182309492E21
2.348251108724155E21
2.375788792257546E21
2.385360853330599E21
2.393233094943451E21
2.3778396228150514E21
2.379083861153085E21
2.196665327376279E21
2.448264848033736E21
2.4588290511108807E21
2.4334703806945674E21
2.423599882272438E21
2.479213284105026E21
2.404724755250342E21
2.4373131239890297E21
2.414060209641992E21
2.387072497970646E21
2.4823433441859155E21
2.466622494043297E21
2.4547864098945017E21
2.469103762284988E21
2.3885313823649694E21
2.440188861086243E21
2.429697838429075E21
2.442164111525072E21
2.2446878444486009E21
2.398022558655252E21
2.3541130602150657E21
2.4192126182373757E21
2.4073348347687417E21
2.2834710508055998E21
1.8390109813614473E21
1.9693366624636966E21
2.463476506547232E21
2.4030443903523713E21
2.4016540719667557E21
2.409580951314306E21
2.418775044436469E21
2.3894921519113757E21
2.3444056757593265E21
2.3470153963334814E21
2.383881823178702E21
2.3649004422410655E21
2.358583474596407E21
2.361175189806538E21
2.3532187551214535E21
2.3407821704695309E21
2.3475266633166668E21
2.3568252289918758E21
2.371257699231355E21
2.382551292043393E21
2.3662445048784324E21
2.4766180173013004E19
3.2839853933575406E21
3.2364967080777246E21
3.4280822298171167E21
3.3552415842656295E21
3.377563358735081E21
3.415789720463172E21
3.3867501727262835E21
1.534056714683489E19
2.9759609277063188E18
6.6062286717476362E18
1.1880662090216841E19
6.0100056672596695E18
2.244994796174383E19
2.1175745574120686E19
1.79434522245988E19
1.34100814699143E19
1.0414797553158015E19
3.311041572878888E21
8.502260843174361E19
7.372946684902063E19
7.47392670420191E19
7.2855447627980464E19
7.195224447502887E19
5.720988259717378E19
2.881766931434418E21
2.75156367577539E21
2.7593062669634875E21
1.4131969710369895E21
1.0233886340343898E20
1.4636319140818785E21
2.788225917305899E21
1.4378271371468344E21
8.251757065083203E19
2.8399951135082723E21
9.628217814702334E19
2.8451320712403825E21
2.859336451918547E21
2.8110283852154955E21
2.7967380521061796E21
4.642416617914965E19
4.732857510295212E19
2.908317076612415E21
2.896492040876207E21
5.95141189638883E19
4.941907907617744E19
4.745662477603479E19
6.036915228985422E19
5.6589161979701666E19
6.757968926380595E19
6.507420447197534E19
6.255930992733402E19
5.463930568211786E19
6.272479497502636E19
3.182185909171761E21
3.1961774176745376E21
3.1130607727141333E21
3.1668049554157454E21
3.1422469492217914E21
3.0853898880912363E21
1.201912266128508E21
2.1263461501676155E19
2.0695382651074073E19
2.132626678860657E19
3.9529097539646856E20
2.1290843988422554E19
2.275966051115141E19
1.6134077297455485E21
7.952057993200374E20
1.7270567987836668E19
2.066518283953576E19
1.8164124743039785E19
1.5145008424340119E21
1.7139072548309814E21
2.124741316005542E19
2.4843272920576295E19
2.719266505032643E19
2.6125911029319946E19
1.3205503270214112E21
2.61227732917328E21
6.877316251123598E19
2.7490399462894847E21
2.703388761735607E21
4.565296917493943E19
4.150699501161759E19
2.5842446324947595E21
2.5890768818880675E21
2.5669473507726994E21
2.604182578422241E21
2.644113381153999E21
2.6279732015319283E21
2.6600956595163863E21
2.580678009800742E21
2.544950101118103E21
3.151230016789846E19
3.0929510234233737E19
2.44302438008531E21
2.4805072330766365E21
2.553791686617584E21
2.5036176831882503E21
5.941488136446077E19
3.4496361380343075E19
6.056729112593181E19
3.733589633827998E19
3.4014384984063906E19
3.7370085063427826E19
3.977934524690228E19
3.830750659717245E19
2.799567571125916E19
2.5321288664300073E19
2.4956319044603336E21
2.309690280717553E21
2.3524102154755886E21
2.4519637171182455E21
2.393083212376819E21
2.5990310203115165E21
2.6200177473279025E21
2.638328630842132E21
2.9623737069248116E21
3.0026089182834076E21
3.054541233701983E21
2.9296184385838556E21
2.9816755732918284E21
2.9508365920515837E21
3.036113906503409E21
3.014028525846925E21
2.889941566448617E21
2.83874271333867E21
2.779948433964403E21
2.778268967644364E21
2.807332338321163E21
2.826876348791396E21
2.6871027855548497E21
2.7322464054423674E21
2.877655648044763E21
2.6601730807400964E21
2.6798874086648127E21
2.641999716589612E21
2.540092164050678E21
2.5834476143600473E21
2.4352676315965523E21
2.622355127469976E21
2.7276046618681624E21
2.6755706329110377E21
2.526950069660723E21
2.5750352278438297E21
3.026027156454586E21
2.967680471555059E21
2.9148568126712966E21
2.9917105179922557E21
3.028653474361958E21
3.052892415592057E21
2.857860779685119E21
3.092651570008748E21
3.448172097864647E21
3.512417254742132E21
3.5011331297458955E21
3.589421073502831E21
3.393046812206171E21
3.67074486678583E21
3.5006984643837354E21
3.4559583040560405E21
3.6768646691877143E21
3.8635735503749487E21
3.2950119128377773E21
3.350413440274932E21
3.313589597200798E21
1.1575307905162432E21
1.3038653630854904E20
1.2032889391810609E20
6.137622270429919E20
1.1469833097871471E21
2.1806800834611718E21
2.8535021678039285E21
2.5693956474711567E21
1.7046157767706747E21
1.6682980231642329E21
2.830069451214429E21
9.769057256015346E19
1.3480893733810628E20
1.3251084367696368E20
1.036253753536219E20
2.155723306511929E21
1.0634820400593202E20
9.762044871736577E19
7.708231305189695E19
7.97110353400787E19
8.082975660729827E19
9.22915137988245E19
7.183118316094912E19
9.337884342484758E19
8.781355881237068E19
2.469618122832853E21
2.4878214545805557E21
2.369133936447635E21
2.3959477287654255E21
2.0603826673887743E21
2.4166062173835614E21
2.4267792177324113E21
2.3201663357143087E21
2.268901078730856E21
2.1272132529039228E21
2.2269642545432969E21
2.178825206583252E21
1.8496462774104364E21
2.1885617075365282E21
2.1254641559672754E19
2.396421789415996E21
2.3774016680642494E21
2.2314540134749827E19
2.2404403074853847E19
1.8109424382461608E19
3.959241273368648E21
4.155097211109411E21
3.271352681441437E21
3.222972310411264E21
3.1605207799724135E21
3.43706992306799E21
1.3451263281546267E19
2.20948331818228198E18
4.8200959903185316E18
9.752760836736377E18
4.3335584250869192E18
1.21014788377627571E18
1.894899899429533E19
2.020507951307832E19
1.5158983558397479E19
1.5659522082028505E19
1.5892995296727364E19
9.2051483501796884E18
1.4966623622467533E19
1.2372743024569942E19
2.2343441507343288E21
2.2819695977154575E21
2.3296649198803078E21
6.320159562959086E19
7.382619978371362E19
8.017000105642752E19
6.1982095761878655E19
6.279551776734877E19
6.2988292626311995E19
5.271988758608176E19
5.2871031473233895E19
5.0467443094463906E19
4.2924874464659505E19
4.376946503620784E19
4.3190600495380046E19
4.201022203058914E19
4.738287881325423E19
6.232043197619073E19
5.8588235884104114E19
5.6997618372169376E19
5.095037752777028E19
5.167180421130821E19
6.26929833983134E19
6.148021636957272E19
6.299204199356335E19
3.1371096917606715E21
3.1046014403809085E21
2.95483665777021E21
3.008396609525432E21
3.077753553057955E21
4.228760526075888E19
2.294340565592649E19
3.239002527244096E20
2.3164256758631944E19
1.1362077645171985E21
2.69174111984692E20
2.002760519801301E19
1.875965282014881E19
1.7193402716412117E19
6.893162489420918E20
1.2275927363331658E21
2.359983659218975E19
2.0170633076163957E19
1.4622468046734704E21
1.6242363145117717E21
2.2860286164898525E19
2.6488101728507163E19
2.5428903605345317E19
2.4263899732262883E19
3.85232258070353E19
3.6395600335346086E19
3.8407881018841604E19
3.1380074055020024E19
2.686502402002044E19
3.209603572637649E19
3.0216471776771932E19
3.008008780975944E19
3.1462003249834054E19
3.5823028953072103E19
3.5475042643191386E19
2.6702687678485213E19
2.6456011059132273E19
2.830165010572804E19
2.680088511211831E19
2.6849328087681237E19
2.2174756372354672E21
2.3759398667934714E21
2.2672937747645593E21
2.3172439101979838E21
2.79734421373187E21
2.6823906716913463E21
2.743137262603915E21
2.625477929551729E21
2.480653758693798E21
2.423595666386321E21
2.367174794203628E21
2.4722547228359897E21
2.525491484131945E21
2.577020031423988E21
2.532691416777738E21
2.896031456875208E21
2.773459189694909E21
2.836509887212887E21
2.714687307115258E21
2.589545656089416E21
2.648068443946541E21
2.7003819109112574E21
3.4988423069533555E21
3.14167427736585E21
3.3936812449498666E21
3.917808438373196E21
4.2060050935779704E21
3.6565603808897023E21
3.5761065429010434E21
3.6853209723376695E21
3.41244080923376E21
3.326709175493217E21
1.1075301461878687E20
1.212127653282032E20
5.974740399826305E20
1.5610584434897755E20
2.8932034427566786E21
2.1293034389222093E21
1.686855358150378E21
1.2147194094023048E21
2.5341911628842286E21
2.5115892656194773E21
2.4903916046815986E21
2.2339265325182298E21
1.5429705538385245E20
1.6353277536583297E20
1.1258670221757682E20
8.699138489147731E19
7.876380552655992E19
8.590501496996895E19
1.0428403129767833E20
1.9467338444576902E21
2.1395991198915428E21
2.0238744624039104E21
2.0844821540791882E21
1.7523139919592216E21
2.114638522009771E21
1.853370708501954E21
2.058729514448811E21
1.9900200618354963E21
2.3886049402611666E20
2.818721937238658E19
2.0710067114415428E19
2.12211218869057E19
2.1255155204931154E19
2.207207240562459E19
2.0593813450899673E19
2.241484179161324E19
1.7069070753856109E19
1.79803677451144E19
1.802790088983635E19
1.8568024821600485E19
3.9908970669496085E21
4.292883941087839E21
4.515453150457209E21
4.4361686725179595E21
4.724386543912659E21
3.335906096154663E21
3.2559873403003543E21
3.183688361556465E21
2.895345453536992E21
2.960684670507283E21
3.126320733681554E21
3.028118309262147E21
3.0565048561683624E21
2.9994858893120184E21
3.929457670714467E21
3.6857137885591985E21
3.5375152796041856E21
3.551329270596286E21
3.7212559048271085E21
4.088742317047063E18
8.0167965716228475E18
9.3730537885864E18
4.9323921497930557E18
1.33653236528167398E18
1.8342485676371053E19
1.955881551650452E19
1.2811898375574135E19
1.7191534537922714E19
1.7896931823560292E19
1.4437286900744096E19
1.218532842048607E19
2.499870933716831E21
2.17109015382196E21
2.1087099406479972E21
2.161990708885484E21
2.4397314943130833E21
7.984603871919038E19
7.158609575624782E19
6.023643422330181E19
6.564717756944991E19
5.233951821985029E19
4.7346587250035384E19
4.009170300562957E19
4.788514961106706E19
5.3128113855367774E19
5.59664429764885E19
6.069083338630274E19
6.627296990963687E19
7.049262870093997E19
3.625623485532343E19
3.794872530880157E19
3.4279933263921975E19
4.550858800175421E19
4.463600311820452E19
5.763511182182873E20
9.063088548966165E20
4.9783390313882957E20
1.0535040324603621E21
1.2701918362882754E21
1.4054346862140716E21
1.5515395614920066E21
1.1860237921144367E21
2.238455252443097E19
2.1417160182988892E20
4.4255235638711314E20
1.901553670405469E19
2.4361023343306076E19
2.7276139962995323E19
2.5045190249808003E19
2.3679732638117523E19
3.133234684869057E19
3.5110298572048044E19
3.406408469775293E19
3.088832365247168E19
2.7467770279269356E19
3.243114709869534E19
3.4814739473784926E19
3.6714321015768125E19
3.217979870539175E19
3.049242661744502E19
2.27346373332226E21
2.2142472871341415E21
1.5592261510627698E20
6.111093532374575E20
2.424993404515172E21
2.3282052158357307E21
2.4797090178936414E21
2.3872261534472465E21
2.760520737708229E21
2.82899713109874E21
2.6965096228673977E21
2.776598408052076E21
2.6373576001315044E21
2.566045755990149E21
2.631913354267695E21
2.547625143258932E21
2.486218462040316E21
4.344077356337337E21
2.797625451959131E21
3.176496297966966E21
3.331671165199848E21
3.6538277520494313E21
3.9854939742703017E21
3.478375195580723E21
3.466910816651091E21
1.480225476210162E20
1.3883152825079698E20
1.5504117163776963E20
2.7599759634614292E20
7.040168550102208E20
2.4026020625672513E20
4.01603803670407E21
3.3338170213297753E21
1.2157801540774957E21
1.7984281935877686E21
1.995150376193432E21
2.447127529568149E21
3.0455964188704564E21
2.6605607269197283E21
2.1199716007817547E20
1.1349467338659016E20
8.821043540113059E19
1.0291689866307766E20
1.0755957087187526E20
1.0342187565321118E20
2.0024755237412487E21
1.9359019160492491E21
1.6787683443952234E21
1.501746202103193E21
1.616800321310437E21
2.054885942105152E21
1.7777846268366645E21
1.933653111930559E21
1.9300541300696629E21
1.8695628673131154E21
2.0552853144608944E19
2.7720431036276736E19
3.121331414560273E19
2.173918679074878E19
2.0801408262613676E19
2.4058499985933693E19
2.3469447820437066E19
2.4030301856383734E19
2.3846930793939616E19
1.9557440884239132E20
4.451542329855209E21
4.822901984353249E21
5.181209646781811E21
4.853493859189183E21
4.4090398367932267E21
4.984406423045183E21
3.9797441389870716E21
4.988229083232399E21
4.945060750193748E21
5.310704789154698E21
6.053399429619289E21
5.572835314233566E21
5.483686689583092E21
6.295559835509058E21
2.9042407794177045E21
2.8432167132014717E21
3.48586236753411E21
3.2931879783331356E21
3.181834661522558E21
3.1059046030039953E21
3.042185429421149E21
2.870432144980969E21
2.954258538503138E21
4.0821909822422096E21
4.4635854093216766E21
3.6346289718617456E21
3.7994499694457064E21
3.845941442036067E21
4.0909947473166105E21
3.64768723164009E21
3.8925196836544855E21
3.689028134456111E21
3.5723156823656843E21
3.7388017223221154E21
7.4917991729508956E18
4.0665125150077414E18
1.92974894437356928E18
9.467458969054579E18
4.452160079732714E18
1.673726916601556E19
2.4547297545852383E19
1.6720419414080887E19
1.3114107390133144E19
1.7678582775101372E19
1.9700491009591226E19
1.3656921335778312E19
1.3943676763512685E19
4.3581695149187825E18
7.8236982355152968E18
1.61277756744014054E18
4.2702465734370278E18
1.245191689541117E19
2.4149640422328526E21
1.998827929195772E21
2.0569327376851175E21
2.1193818893854947E21
2.1792161805906695E21
2.239389535298911E21
2.3601651690820807E21
2.3026686201384668E21
6.303564736113023E19
8.34342287362945E19
7.047218812475382E19
7.740289916562373E19
5.355108162069315E19
5.645275409532086E19
5.723729747584401E19
4.562335093452142E19
5.079355853813382E19
6.0608150207804514E19
5.526785355588982E19
6.351779367504541E19
7.1700398800520634E19
3.4413548367633814E19
4.043355167829741E19
5.125025917670006E19
4.923333261119171E19
4.224932921633525E19
4.478822867643742E19
7.81458677955919E20
6.891332586033008E20
9.460673159994625E20
1.0802437621301547E21
1.4600096746235044E21
1.3559197047006773E21
1.3247866106857183E21
1.1864276125172816E21
8.554923830353058E20
4.015907003474851E20
6.278163707417341E20
2.7224794060316365E19
2.4869019378064642E19
2.579817075954273E19
2.574810735593295E19
3.755547437592315E19
3.3339080199364477E19
4.095370646958245E19
3.4486305252954173E19
3.5119537260426297E19
4.048313120773868E19
3.534641850649384E19
3.2275996960612487E19
4.7241377554106384E19
4.491030496038946E21
3.7026390032807557E21
1.3973140677847731E21
2.0844522789823707E21
1.4473208690094147E21
2.648504166508357E20
2.372116566070553E20
7.716768863774254E20
3.085238411262206E20
2.8159255860739797E21
2.7408269142284666E21
2.652910539300839E21
2.565533227946973E21
2.4288576300781357E21
2.4944023443541333E21
5.046256771681431E21
3.619791987977232E21
1.1689355784543026E20
1.6037756983642427E20
1.936859700774287E20
1.3948912684505765E20
2.3069213545402594E20
2.7637429889352332E20
2.6871372766610506E20
3.376250769113923E21
3.0543294319647497E21
2.833986169891129E20
1.1630401847842885E20
9.69089751617721E19
1.0635572345030966E20
7.752256469276574E19
9.086465747328711E19
1.421390458451706E20
4.0828095688748425E19
4.671997846591541E19
1.9631256998135558E21
1.8559092658255566E21
1.5714362055579698E21
1.7144176370640526E21
1.7952857776353488E21
1.8963036513377963E21
1.824835191227701E21
1.7463315468760992E21
2.5687378435460207E19
2.67430352654429E19
2.3245524589536285E19
3.725020398302486E20
2.9617462019386143E19
2.643929481214784E19
2.7317209593623732E19
3.753021964199227E19
3.55822885431824E19
3.506299584399999E19
2.959914323273413E19
2.295104644157089E19
2.4852570588862136E19
2.6030578733630427E19
2.5355878393068683E19
1.810428826512253E20
4.443839934914026E21
5.343739577161137E21
5.290216082687519E21
6.184933514803781E21
2.433338469637091E21
9.439448530008298E20
3.5432169072414196E20
6.743307404810122E21
6.14412814665198E21
7.154783122316685E21
6.149467250471217E21
5.853255790021058E21
6.775256677532002E21
7.220075283672785E21