<?xml version="1.0" encoding="UTF-8"?>
<VTKFile type="UnstructuredGrid" version="0.1" byte_order="LittleEndian">
<UnstructuredGrid>
<Piece NumberOfPoints="9062" NumberOfCells="17586">
<PointData>
<DataArray type="Float64" Name="Color" Format="ascii">
3.518538651731534E21
3.5767043365895023E21
3.5759594261678753E21
3.57256814735967E21
3.500740859990654E21
3.563197479662106E21
3.566868647009191E21
3.5735248982568274E21
3.423785711679784E21
3.5709020961701306E21
3.5699307673278805E21
3.575053327646885E21
3.5068048072487873E21
3.5760967605309433E21
3.574342068343679E21
3.5733205359645934E21
3.4847168253050765E21
3.460614207726218E21
3.571117843039646E21
3.563805675683912E21
3.5556546941620244E21
3.545012082809696E21
3.535569017994171E21
3.549192722072562E21
3.4949892350493023E21
3.467850253413059E21
3.525255209213319E21
3.476444943061983E21
3.4939690815989623E21
3.451427823292996E21
3.429298775372208E21
1.4221464458644297E21
3.4712172957083175E21
2.7345482357066826E21
2.0036189772538527E21
1.2336337308802566E21
1.1593825712465117E20
1.3339498271681744E20
3.543704854493177E21
3.5580814954381155E21
3.0454074876643996E21
3.5494840205243764E21
3.515554885022041E21
1.360708161666813E20
1.7897017549283124E21
3.442050257221214E21
3.5662837473140125E21
3.5655704305641985E21
3.560004645290985E21
3.5576540754469255E21
3.3675901189562255E21
3.242000510735872E21
3.5495629685665117E21
3.5441411127545614E21
2.2188743925428354E21
1.0530316608354788E21
7.99799416454195E19
8.530423336857898E19
8.618731468287844E19
8.408940194028423E19
8.226113984753435E20
3.5502293676554243E21
3.564205021264714E21
3.5633512795909626E21
3.5618429315705523E21
3.552587810344975E21
1.6677866826843855E21
2.815953731939023E21
2.358967143838397E21
1.629797424943782E20
3.4373074955277755E21
1.780989043353469E21
1.7696410173161747E21
3.414249230420907E21
1.666757952069551E20
1.7572408107186552E21
3.403261154759401E21
3.3706580419314786E21
1.43077339626016E20
3.532468033547895E21
3.528482736151074E21
3.5316287666344884E21
3.540258364039585E21
3.5421197486464833E21
3.526657538301371E21
3.527332314424264E21
3.5108049804906133E21
3.506081949018585E21
3.4884686756656484E21
3.5122940047518634E21
3.5327869278807256E21
3.4828593695679866E21
3.4902470423189725E21
3.471451185856518E21
3.457375952659665E21
3.476505855665229E21
3.505903428623074E21
3.4273508940577804E21
3.376311028658119E21
3.4665127488044783E21
3.4454196500329435E21
3.480273384925488E21
3.461383191332083E21
3.440765656925015E21
3.328745033018255E21
3.2464779573044477E21
3.380943338653839E21
3.550680775522446E21
3.5366415199872205E21
3.530853890242479E21
3.5221693099453086E21
3.411398884412233E21
3.4977735918769453E21
3.5089358714023313E21
3.441998500943051E21
3.4947244720735797E21
3.4307895682002085E21
3.4232122802924154E21
3.4150348994396637E21
3.4337016810422267E21
3.403775437505165E21
1.1510393686952941E21
9.971336242450495E20
7.732932434134098E20
1.75181748000417E19
4.008025313222573E19
9.371280394988413E20
2.2949237822379828E21
2.2939194842953729E21
1.8803167105099895E19
1.1621122664139639E21
3.886292675386672E19
1.8346581367636412E19
2.3035243440173524E21
1.1698810613684775E21
4.238423338428852E19
2.313673495393117E21
1.1753496656661196E21
4.608014715253054E19
3.339465823174357E21
1.531130189021158E20
1.7430355294456872E21
3.34376984172411E21
1.7206029679196436E21
1.3896175157856605E20
3.424283059671794E21
3.3902216569247336E21
3.32053158231044E21
1.6924769538524103E21
3.448364973568286E21
3.4585182752612234E21
3.392870761161812E21
3.4327223728091955E21
3.408228257838391E21
3.404335787377867E21
3.3854155908694037E21
3.336449128596201E21
3.3056079732630235E21
3.3598373123064746E21
3.3396406241398216E21
3.288668488959582E21
4.555727728309951E19
1.1597531988542102E21
1.5370727752098434E21
1.2539895010819005E21
2.3045239335265472E21
2.2981956183565892E21
1.1739309898816898E21
1.1729750135163822E21
2.2916168649052332E21
1.1692594063838582E21
4.268470114232113E19
1.1735279734596011E21
2.294693107120109E21
4.84123439893634E19
2.2919114559946356E21
5.2840588029027164E19
4.623489847479841E19
2.290732994521639E21
2.3158129681207512E21
2.3179001800583765E21
2.2973770723440143E21
4.560936640192636E19
1.1659694464639884E21
2.3167550397195412E21
2.2915282645740854E21
1.1685041391971972E21
4.981825199925752E19
4.93148143287493E19
1.1810866458632103E21
2.3344721593469923E21
1.1883510614654617E21
4.913969046146026E19
2.39110999393015E21
1.2085384820166123E21
2.3725003797081453E21
2.4125615066605415E21
1.222371125973402E21
5.10297435706556E19
1.569610860098691E21
3.0898514569567624E21
1.5940215619064127E21
1.1164599092957741E20
1.5470011551942223E21
3.0244535794946346E21
1.095146049604151E20
2.9794177627056667E21
1.0288418833517312E20
3.190404999005514E21
3.160990681382204E21
3.135029316054524E21
3.091731662607883E21
3.516198340188888E21
3.3783677941163764E21
3.311974065455371E21
3.5050186698343816E21
9.3303725390175E19
3.097443738329476E21
2.7843300208161734E21
3.5137322362791637E21
8.104251343592666E19
8.355888914908956E19
7.610911662016697E19
7.560392718690687E19
6.873982025953152E20
7.854411124450394E19
1.393469213206752E21
3.2424170385309654E21
3.0365053809264086E21
3.553577903865886E21
2.02678894276909E21
2.5013886740985844E21
3.281159334211853E21
3.2524754886712356E21
3.231395279364938E21
3.4876849130785646E21
3.493826380459474E21
3.466039863665861E21
9.581198508233023E19
9.300517513200717E19
3.4601735702373115E21
8.14962553894787E19
3.433008050069379E21
3.423280256882712E21
8.559806348595693E19
3.4172027347232086E21
2.3528584742412513E21
2.3599097468254843E21
2.3670210197425404E21
2.3465531082307443E21
2.1302776071597895E21
2.324277584846842E21
2.315825495300081E21
2.3202477310807515E21
2.3236911315736385E21
2.3170026883546368E21
4.424033156992633E19
1.1975326697036314E21
2.3493589781562883E21
4.331427410325382E19
2.3304900208332523E21
2.333171563049446E21
2.32463850037624E21
2.3191186018967992E21
2.3266938784191294E21
2.3352371892012573E21
2.3270873991651514E21
2.3257046826834794E21
2.3339010855050842E21
2.3324785773640058E21
2.3173603841463867E21
2.3261208589913408E21
2.335571095708828E21
2.322802966559465E21
4.5379975843144065E19
2.3362441349984312E21
2.3459035865647984E21
3.2756940926868023E21
3.3168579260417746E21
3.4238989528774717E21
3.3994378911537174E21
3.0550952702029904E21
3.186200973240444E21
3.33259173679493E21
3.245316796770068E21
3.4127241288930495E21
3.3954633350472694E21
3.3900735549710936E21
3.3796128877644224E21
3.4059296028796864E21
3.4256503125585633E21
3.379379439000866E21
3.3500681691643736E21
3.393105486433008E21
3.371828773337742E21
1.9058280643225137E19
5.7827039118783939E18
9.1403217954065777E18
9.706707992051546E18
2.694050971097563E19
2.4388982812187754E19
1.7697335021809848E19
2.4334704407090102E19
1.183956939146508E19
3.3672684610647113E21
1.2870109396434615E20
3.392448815409613E21
3.352531039486866E21
3.3503811538201634E21
3.339510441678201E21
3.382312825521044E21
3.3098804153338346E21
1.2838576191545975E20
3.2707327514383525E21
1.6710236275854066E21
8.171160210642207E19
8.53366040563158E19
8.380603634213672E19
1.515566832403057E21
1.0425732365195156E20
3.347757430943628E21
3.374535901814418E21
3.2645255912888976E21
3.218335444672733E21
1.307981031961644E20
1.646249874923401E21
3.256842252841464E21
3.2156545250966766E21
3.185624789388335E21
1.6185052572037072E21
1.2741303427004113E20
3.1381523131837055E21
1.2295528231900475E20
3.3219445551825305E21
3.302785650787032E21
3.2724730590209104E21
3.2404977670525136E21
3.2903211694055296E21
3.2070211561126866E21
3.1675630644325725E21
3.1246307335660304E21
3.1464196291711127E21
3.093802852397065E21
3.1903349847618235E21
3.1124288780587914E21
6.605076305919421E19
6.3619530924327576E19
6.821371551058301E19
3.237775491195147E21
3.1316965953454866E21
3.1845379612632684E21
3.212792009963816E21
3.236301730353856E21
3.308153838398241E21
3.258506338486872E21
3.2413689535756905E21
3.1404155732631586E21
3.2646848299271974E21
3.291615378103222E21
3.313242193017398E21
3.286677835460963E21
3.334136741303171E21
3.195115494182694E21
3.247448004291517E21
3.379630418637689E21
3.263868232656159E21
3.209187918254631E21
1.6047780461148467E21
2.3233579410008716E21
2.3228774288564061E21
2.3400966699358112E21
2.3354017445053824E21
2.3278903368255676E21
2.3310460239546378E21
2.3461322452750227E21
2.3404335754753461E21
2.3343311480253288E21
2.0360798729720066E21
2.246046130059185E19
2.832190976929668E19
2.2508221521324634E19
2.629425476195664E19
2.7159296273933144E19
7.594681425239483E20
2.426217675148137E19
2.461526498747474E19
2.692161217069284E19
2.1412413888311042E19
2.0107775978831778E19
5.075831747517067E20
1.86406324772385E21
2.3271822931451547E21
2.3489034789613693E21
2.365889065278778E21
2.822916668353371E19
7.745022814663834E19
1.390242297749421E21
8.02459810230264E19
1.365012883103799E21
2.694650185721493E21
2.649055670011167E21
7.678929486868401E19
1.3427373393885413E21
5.403846278076288E19
1.2353324369977863E21
2.438649141802178E21
1.2490149820955256E21
5.686303015359697E19
2.4270785899988973E21
2.455281827964405E21
2.7077869258856496E21
2.6662955964995454E21
2.468411769985674E21
1.2624469559706512E21
6.715654557814567E19
1.2821311391363275E21
2.5388915365904515E21
1.2978173729059394E21
6.7997122125351395E19
2.4036847718381267E21
2.4227181608457355E21
2.383351426532011E21
3.000409919817015E19
2.7357662306270794E19
3.155411929224161E19
2.526321967633808E21
2.508123604655245E21
2.4942617731481904E21
2.4195822536280753E21
2.5411301172530407E21
2.5611464210990985E21
2.4556009249967644E21
2.6273941492044467E21
2.588196155648063E21
2.614393265302547E21
5.98372466530871E19
2.92799882468425E21
1.4880750874291573E21
3.058078861783006E21
3.0065673018989955E21
3.156039330489962E21
3.136851507757624E21
3.169382355819438E21
3.115810868926009E21
3.101971467564627E21
3.083868436197557E21
3.0633787245675015E21
2.9745415147027017E21
2.9449533472332846E21
2.92121821640264E21
2.872248884723011E21
2.629839580425206E21
2.607223255811933E21
2.590696892333035E21
2.646897376783568E21
2.5983111302577285E21
2.57768574605872E21
2.493720907609136E21
2.6114728431146526E21
2.6715261254003285E21
2.690244730611988E21
2.6646953502677E21
2.708872991642023E21
2.735035599498233E21
2.781533283950074E21
2.7547712993903924E21
2.715508743105969E21
2.652904128963614E21
2.842391522405823E21
2.8707793550997554E21
2.893702875705913E21
2.695314501169009E21
2.740791659997659E21
2.7252527357003526E21
2.6998352525336254E21
2.68080704679348E21
2.6242062665997264E21
2.761746196994257E21
2.8094485976998934E21
2.831011561247488E21
2.746028093279758E21
2.7707969397577477E21
2.793143785677211E21
2.6704432837076635E21
2.767317290263892E21
2.7200959659809697E21
2.7883591510888137E21
2.8147950910749063E21
2.769376075418629E21
2.818421818284896E21
2.8187553695719065E21
2.719672990715619E21
3.0537115499040704E21
3.000984227324744E21
3.2214784441462785E21
3.201815145642986E21
3.2070042856182676E21
3.17869817313047E21
3.1553636521310085E21
3.038548397604668E21
3.0400158670209396E21
2.85248206851949E21
2.8817377149419724E21
2.9029698549848615E21
2.933339140659758E21
2.9551463981884087E21
2.8596514756752043E21
2.9107913973931647E21
2.916839443814201E21
3.083635704880566E21
3.1065959452894455E21
2.979648084790326E21
3.071492023888508E21
3.052649188965766E21
3.027840628568762E21
2.998618843027425E21
2.926577054486051E21
2.968902904369426E21
3.0775329784514735E21
3.1002185855538566E21
2.9406920857634834E21
3.016453848382371E21
2.963050258400642E21
2.9932735871095165E21
2.939363400520684E21
2.8365151106961805E21
2.864412610913336E21
2.888075708550599E21
3.435130970062122E21
3.453397006165087E21
3.4222973992971665E21
3.349665151036271E21
3.2377886456241114E21
3.309979482360019E21
3.1491009992889713E21
3.0840502839030595E21
2.286217030294274E21
2.6123118731577624E21
1.7988153917098455E21
8.247461531631282E19
2.836118233091595E21
8.201223679690252E19
8.169722359676235E19
1.0122544708986164E20
9.975563413107902E19
6.456989053763724E20
8.753602588058146E19
6.091884137149071E20
1.1498149022958723E20
1.0553076769969417E20
1.2508695827266412E21
2.879567117979929E21
3.3297536143179766E21
3.355629218367E21
7.432138468085568E19
6.313321317468165E19
7.88591770704505E19
9.313279919017242E19
8.128712964059914E19
7.317156914606631E19
7.936788741481626E19
2.4486894374742975E21
2.4845238791894886E21
2.515911242867288E21
2.507059955663379E21
2.49537008417863E21
2.5281889371305447E21
2.5691880870823943E21
2.514680325386749E21
2.5050577558358925E21
2.5195110913792724E21
2.4887770699346367E21
2.5014587827662126E21
2.4714180436257695E21
2.553528122664318E21
2.538751438909424E21
2.5229351415329047E21
2.557142519093465E21
2.573231735736828E21
2.548820339128258E21
2.534330537599166E21
2.359154372146997E21
2.3516197387934501E21
2.344568475224276E21
2.372061990184997E21
2.3816972183168053E21
2.389557311733936E21
2.3739814980133947E21
2.375542383639651E21
2.1931982091246908E21
2.4443674568739327E21
2.454853508507741E21
2.4295368198366655E21
2.419641581039899E21
2.4752000572709924E21
2.40074185272039E21
2.433266319346714E21
2.4102832749810606E21
2.383378190961673E21
2.4784772047355076E21
2.462587955820984E21
2.450965415307033E21
2.465270994465922E21
2.384582383525865E21
2.436284105280792E21
2.425928353272412E21
2.4383372692691846E21
2.2411511554628337E21
2.3944077788348075E21
2.350274295399777E21
2.415495939644096E21
2.403753755374994E21
2.2798426943115108E21
1.836020045776683E21
1.9660828067390766E21
2.459574483884544E21
2.3992284133373913E21
2.397872230117687E21
2.406013718487079E21
2.4148983464377403E21
2.3858152762678575E21
2.340858127889895E21
2.3434379933245996E21
2.380192600569437E21
2.36129724935661E21
2.354924485222534E21
2.3571632137713313E21
2.3495315956398306E21
2.3371883012919968E21
2.3438358666525084E21
2.3532185784460008E21
2.3675550342100565E21
2.3788277852628944E21
2.362623236697104E21
2.4658539401030795E19
3.275469025078047E21
3.2282251830639335E21
3.418329457286396E21
3.346398390755575E21
3.368465769826084E21
3.405838403681883E21
3.3770063148396194E21
1.5264163474495334E19
2.9615537023922427E18
6.5772774385725594E18
1.1820780031969266E19
5.9850512564197939E18
2.2343969927401935E19
2.10769857643889E19
1.7864570400127472E19
1.3357136181061761E19
1.0372066138357197E19
3.30453266801146E21
8.452297636303505E19
7.334875609865528E19
7.43531123957038E19
7.245242723971107E19
7.153656839209069E19
5.6927552109439615E19
2.876809309686574E21
2.7468379415392105E21
2.754620168199326E21
1.4107715830926077E21
1.0183229596364092E20
1.4609943560499267E21
2.783550231813087E21
1.435291642404186E21
8.209182859077653E19
2.835113610504544E21
9.581110826835157E19
2.84009246148827E21
2.8541666793126127E21
2.806102725777758E21
2.791738637637624E21
4.617679515731132E19
4.7089607261842735E19
2.903096735759552E21
2.891132017152763E21
5.91878370672624E19
4.918756184646316E19
4.722739290357551E19
6.006688960547308E19
5.631949124738599E19
6.720566316021774E19
6.4695040687324045E19
6.222318139224784E19
5.4355978990851E19
6.237858728465958E19
3.1741994425240886E21
3.188689698990453E21
3.106438996917443E21
3.159967441506905E21
3.13503617790494E21
3.0784059432438077E21
1.1999889716452112E21
2.116068114407389E19
2.059200899718363E19
2.12357329492E19
3.946105439700422E20
2.1196633647864074E19
2.2660583699400184E19
1.6107971864555755E21
7.938460981419238E20
1.7199179443903232E19
2.056566348619616E19
1.8077516215138208E19
1.511934278071113E21
1.710959276337274E21
2.115685000938453E19
2.473313996355655E19
2.7071443529559146E19
2.6011847523777303E19
1.3182756386305498E21
2.6080334100574545E21
6.8432752106275316E19
2.744196304655323E21
2.698691462255146E21
4.542602858113254E19
4.129308103610349E19
2.5800669490035645E21
2.584852674718835E21
2.562860915244118E21
2.599921163071472E21
2.639787834189298E21
2.623507734622699E21
2.6555772072655066E21
2.576518875585121E21
2.5407375860511744E21
3.1363650612097614E19
3.0762879987396178E19
2.4391274346020985E21
2.4764673544478335E21
2.5496282325568906E21
2.499790476391245E21
5.912829879555392E19
3.4328981891972887E19
6.0268873195435745E19
3.714572467921463E19
3.383969715556444E19
3.720818672334531E19
3.958784361526827E19
3.811263721702466E19
2.786842698033231E19
2.5190595606529135E19
2.4915623562928524E21
2.3056987892849383E21
2.348307968247191E21
2.448083092100352E21
2.3888548075903695E21
2.594682173839119E21
2.6156214582400804E21
2.6339093068919535E21
2.956887890043991E21
2.997012308037565E21
3.048818449066743E21
2.924255539464591E21
2.9761956860583766E21
2.9453525745586903E21
3.030477192860156E21
3.0084151094670823E21
2.8841027799346677E21
2.833071396518994E21
2.7745026768181327E21
2.7734416836070914E21
2.8024268145442795E21
2.8218259823998004E21
2.6824604666621083E21
2.727484076762358E21
2.872429024998176E21
2.655599153750091E21
2.6752356573672023E21
2.6376480327144214E21
2.5357269663192035E21
2.578940017737373E21
2.4309201915826185E21
2.6174033215122545E21
2.722314156356473E21
2.670442182147411E21
2.522317877253071E21
2.5702405118043965E21
3.019263235566864E21
2.961129811657208E21
2.90849659858398E21
2.9862644558665325E21
3.0229893645071543E21
3.0472211475091544E21
2.8517210913581055E21
3.082908932700405E21
3.4376808728744223E21
3.501093836695446E21
3.489704044807151E21
3.577166618347105E21
3.382347317877895E21
3.6577424470328234E21
3.4893128435188357E21
3.4452358596261477E21
3.6635638463069374E21
3.8488106992746695E21
3.2842472273145606E21
3.340892490956293E21
3.304280964513238E21
1.1538202916937572E21
1.296573531374334E20
1.196607000227059E20
6.114743441751837E20
1.1429468204272089E21
2.174152349798853E21
2.844863112779514E21
2.561912780245421E21
1.6993451019205395E21
1.662663180076707E21
2.8206819142916254E21
9.71711980451254E19
1.3404009740159466E20
1.3176140601517908E20
1.030315222268792E20
2.148582616224705E21
1.0576395701721945E20
9.708204838158836E19
7.665285928307486E19
7.930513500502568E19
8.040873592940867E19
9.178271701261181E19
7.145470334794391E19
9.288465575484482E19
8.735171681962197E19
2.4657854316128685E21
2.4833981972990573E21
2.365539456694168E21
2.392031986089835E21
2.0569668912817953E21
2.4127994033250406E21
2.4227953947976694E21
2.316424710589494E21
2.2650042679656933E21
2.1236771924836947E21
2.2232010058592564E21
2.1751787763660407E21
1.846436509594118E21
2.1846157621205202E21
2.1163652688208794E19
2.392722822070632E21
2.373756453911188E21
2.2206148342756184E19
2.229977185062227E19
1.8027641387628358E19
3.9434147787970996E21
4.137839973948768E21
3.2622712918091E21
3.2141345331807576E21
3.1520132735755873E21
3.426342924617008E21
1.3385899291137133E19
2.19969726727340006E18
4.8010136905777879E18
9.706706875498953E18
4.316362878279872E18
1.20556457035654886E18
1.887096832539859E19
2.0113302332127777E19
1.5088561284292884E19
1.5585851669860565E19
1.5816531602911185E19
9.1623939282943089E18
1.490461611550425E19
1.2321067024558713E19
2.2302672552947855E21
2.2777499074130988E21
2.325292989351792E21
6.28856511090896E19
7.3393139720372806E19
7.971859595560385E19
6.166413884440554E19
6.246840682554705E19
6.263474536735204E19
5.244972983789233E19
5.258480333834785E19
5.019507689168926E19
4.270980964153741E19
4.352954434174287E19
4.298801446006381E19
4.180507795122506E19
4.712970259212471E19
6.2012287489136796E19
5.8302528752220365E19
5.669883856052569E19
5.070773680187124E19
5.1425513681212105E19
6.237137598299635E19
6.11783478049506E19
6.2668225665661346E19
3.1293479279827013E21
3.09638106019966E21
2.9478517022672117E21
3.0012214600037916E21
3.0702745933502286E21
4.208004339552915E19
2.2839084132469764E19
3.232977333854152E20
2.306385079586985E19
1.1342579245641985E21
2.6866470431679044E20
1.993751311987588E19
1.8683257472773755E19
1.7112160801604235E19
6.880823664855195E20
1.2253760287997325E21
2.3491830116904767E19
2.008893925784262E19
1.4596032814431378E21
1.6213079740112938E21
2.274506780616743E19
2.6357156145415107E19
2.5308048927891165E19
2.4137669639891194E19
3.833472769957905E19
3.6200810411817128E19
3.821312814946556E19
3.1222331897824936E19
2.6720863715497087E19
3.1928715350646456E19
3.0090047029402833E19
2.99203299090934E19
3.130448868782535E19
3.5637136732555604E19
3.53019497844285E19
2.657232008081206E19
2.632762378059599E19
2.8157839863507055E19
2.668237713137058E19
2.673191486410787E19
2.2131233789520424E21
2.3714276460302104E21
2.262796301648603E21
2.3125815413493067E21
2.7914325614138664E21
2.6768894210544527E21
2.7373966831772736E21
2.6201743872745695E21
2.476148458961701E21
2.418949189473636E21
2.362375263380837E21
2.467461075431441E21
2.520511230601264E21
2.571851040648766E21
2.527311342280848E21
2.889271196302031E21
2.767189142763427E21
2.8299814504661773E21
2.708626201751905E21
2.5839750301001497E21
2.642248591954345E21
2.6939216874244774E21
3.4867529181845714E21
3.1308668477252866E21
3.381532199045973E21
3.9025638147537025E21
4.188433772608381E21
3.6435627812119805E21
3.56406492685474E21
3.6712789928314515E21
3.401772261298452E21
3.3167297649400265E21
1.1014472197907913E20
1.2053843743784855E20
5.950671856212295E20
1.5521450367559896E20
2.882409414512765E21
2.1216177350998627E21
1.6805022285484117E21
1.2098631382899035E21
2.5261428365660195E21
2.502759661839676E21
2.4809720672216914E21
2.2250393498520343E21
1.533987967407887E20
1.6257996346700356E20
1.1196948770000378E20
8.652596171527784E19
7.834355005243952E19
8.54401042324955E19
1.0370662020974898E20
1.9433292212571815E21
2.1357581656909047E21
2.020327112339068E21
2.0807867331158294E21
1.7491148382008542E21
2.1106123108698809E21
1.8499774460350984E21
2.0548319419486857E21
1.986050717801601E21
2.3838374134683995E20
2.806132710146595E19
2.0619677721597088E19
2.113165653989881E19
2.1156857234777838E19
2.19653258743927E19
2.0509955157878608E19
2.2317097986843005E19
1.6994301689346376E19
1.789690918227041E19
1.7963350213592537E19
1.849007775720387E19
3.974166365627321E21
4.274294748641529E21
4.495244568274864E21
4.4159182571040675E21
4.702730873490332E21
3.325239793952487E21
3.246381887169977E21
3.174492509015485E21
2.88805816044104E21
2.953129875487741E21
3.11740446389934E21
3.020297419508808E21
3.0479676540204923E21
2.9911768634106897E21
3.9141399039690906E21
3.6724145824094764E21
3.5255230411158753E21
3.5391024246002114E21
3.70762835022146E21
4.0711896827275453E18
7.9825552847854141E18
9.333208927252275E18
4.9095255398566697E18
1.33052654367199462E18
1.8253771268743866E19
1.947307312907516E19
1.275145024135163E19
1.7119437525715436E19
1.7818822514701695E19
1.4373498317712425E19
1.2130678348306774E19
2.4942167175927237E21
2.1668806601031866E21
2.104364300731966E21
2.1574899011900054E21
2.434282909112689E21
7.94062632256653E19
7.1212167950140375E19
5.994545750701807E19
6.53175311370516E19
5.205275578254278E19
4.710615768778622E19
3.992574819498676E19
4.763260604544348E19
5.28487448819127E19
5.5683292624868975E19
6.037978077493219E19
6.5924675521485595E19
7.012733420969793E19
3.607079304335842E19
3.777477349951664E19
3.4127228587665347E19
4.526138956320289E19
4.4424262263015694E19
5.752659058672496E20
9.046335476351769E20
4.9685496994655876E20
1.051483144729616E21
1.2678066612794027E21
1.4027572847462384E21
1.548569236557956E21
1.1836694106537072E21
2.22872652195727E19
2.1370094715908047E20
4.41622195954123E20
1.8932206300778267E19
2.4242730265795E19
2.7153906098841276E19
2.493844379140116E19
2.3577348687344947E19
3.1180387940438364E19
3.4950358271437582E19
3.390376944910536E19
3.0745594005148828E19
2.734471756411504E19
3.228356141173962E19
3.4648123832948294E19
3.654305553655145E19
3.202079874359628E19
3.034840087903614E19
2.2685850257322764E21
2.2095755337002807E21
1.550097191120842E20
6.083948445798717E20
2.420017305297869E21
2.3231723306396326E21
2.4745370744404165E21
2.381980159851004E21
2.7538177849954114E21
2.8220079868900776E21
2.689590795143937E21
2.7692910811860236E21
2.6311781208979454E21
2.560125418918556E21
2.62528450355995E21
2.541378106384598E21
2.480206098956756E21
4.325516745765416E21
2.7860796787457686E21
3.163728414326658E21
3.318850384581645E21
3.6391126347296103E21
3.9698201890481835E21
3.4668092615394066E21
3.4549614035008713E21
1.471627617633578E20
1.3804675610073956E20
1.541250550857023E20
2.7428660797672443E20
7.005143711873582E20
2.3875680123638445E20
3.9983806816666816E21
3.3192145303921314E21
1.2105150861599008E21
1.790851230288559E21
1.9858395826423288E21
2.436302701315613E21
3.0315108996410324E21
2.647419704879749E21
2.1069937649545973E20
1.1287438611901935E20
8.773911547055153E19
1.023142429985085E20
1.0694734269812475E20
1.0282092292200515E20
1.9987063048696142E21
1.932296408502187E21
1.6755491009349988E21
1.4987364278855923E21
1.613550358336415E21
2.0506973302094511E21
1.7743443458728701E21
1.9295423988700097E21
1.9262198936103918E21
1.86566057477998E21
2.04719372186782E19
2.759846475751632E19
3.1068388115959755E19
2.163922571908492E19
2.070685170139016E19
2.394754894433786E19
2.337161575126512E19
2.392467430392195E19
2.3738356142007865E19
1.9511376549391473E20
4.4300378193090225E21
4.80024238679376E21
5.156173121163173E21
4.830879619698052E21
4.390062899861217E21
4.959228371587781E21
3.9612114569726646E21
4.9620666448546E21
4.921881254171996E21
5.284490207118457E21
6.021573761073059E21
5.544315173125083E21
5.456069698614803E21
6.261734004172581E21
2.896382407933249E21
2.835633153766276E21
3.473627455209216E21
3.2826565150297655E21
3.172051795201374E21
3.0965637334372267E21
3.033089720558303E21
2.862176968292373E21
2.9456136228151875E21
4.0657073243890086E21
4.4441295758223637E21
3.621438143473325E21
3.785055440901276E21
3.83100241286372E21
4.074268473745995E21
3.6341703821968377E21
3.8770641808497553E21
3.6749879776656737E21
3.559137774267416E21
3.724281597543452E21
7.460956005146238E18
4.0500715310400108E18
1.9208307070099392E18
9.42197582030924E18
4.4334808824065859E18
1.66563653697182E19
2.442999292106152E19
1.6649439088900684E19
1.3052480728743053E19
1.760054453799015E19
1.961420725862197E19
1.3595383231741559E19
1.3883845181216924E19
4.3397131569926467E18
7.7912148879741501E18
1.60525956993808307E18
4.2524279104619136E18
1.23993549164156E19
2.409219655044232E21
1.9945028792320472E21
2.0524384349108518E21
2.1146718721953636E21
2.1743128508477444E21
2.2342611558359965E21
2.3545700490852497E21
2.297288096133262E21
6.27425248499947E19
8.297948108832003E19
7.012130548128313E19
7.699688967471237E19
5.326865876307077E19
5.617530281649123E19
5.69560050630721E19
4.539625667492952E19
5.0528351698727E19
6.029569741718136E19
5.4987764089863864E19
6.319618299106818E19
7.132688492940626E19
3.4267917728041046E19
4.024153226729616E19
5.099427203346351E19
4.897646876476479E19
4.205241828135658E19
4.458052761060013E19
7.79924367363403E20
6.877302677324847E20
9.441589223447387E20
1.0779903494324941E21
1.4569122739113985E21
1.3530561322559126E21
1.322106101682661E21
1.1838399844077412E21
8.536597702380488E20
4.006725414128837E20
6.264187640857233E20
2.710348268918286E19
2.47581290847707E19
2.5684821953252766E19
2.5625246041895907E19
3.735670019695415E19
3.3184788046236045E19
4.073030009692E19
3.4321502817416196E19
3.4950629096438436E19
4.028776152183633E19
3.5173710223400174E19
3.213494543647955E19
4.700989793935688E19
4.4681534519057785E21
3.684714089119471E21
1.3905025593965546E21
2.0739040516722957E21
1.439646401016738E21
2.6310038463610628E20
2.3567179427348667E20
7.673753143057167E20
3.0640324351782375E20
2.807879475368665E21
2.7331805155397757E21
2.6457369482475985E21
2.55877131368854E21
2.422559172787204E21
2.4878526929882783E21
5.022243878311355E21
3.604349427797516E21
1.1621521537046551E20
1.5944368494218628E20
1.9250692411382933E20
1.3869216880694436E20
2.292850167778745E20
2.7460770161473434E20
2.6694828811538304E20
3.359088947179891E21
3.0377340513879804E21
2.8156723882275154E20
1.1562177688027616E20
9.636724423477076E19
1.0577903161778097E20
7.710763477795791E19
9.036407993706766E19
1.4128741140495524E20
4.062344999773667E19
4.647619334476051E19
1.9586121083488295E21
1.8522305574788546E21
1.5680799378325837E21
1.7109632257373564E21
1.7916271538422366E21
1.8919967732772197E21
1.8207405911824052E21
1.742500764808564E21
2.557491621463251E19
2.6621920782960628E19
2.3148235213010735E19
3.7160414943060846E20
2.947932502911579E19
2.6322462680846873E19
2.7194139058459525E19
3.734744484794901E19
3.5421536519127683E19
3.489481341768627E19
2.9468798934462054E19
2.2844531308358693E19
2.4741117086380216E19
2.5917847498913444E19
2.524281529560998E19
1.80587369519236E20
4.4198327279021756E21
5.313673543359716E21
5.258602179734999E21
6.148099659607695E21
2.4195325079712416E21
9.38002880918645E20
3.5176914390950615E20
6.700608855886133E21
6.103670638579878E21
7.110503574806055E21
6.114182602669596E21
5.821282994956115E21
6.737819833914799E21
7.179966670549725E21
7.367076899972738E21
5.662164729768785E21