<?xml version="1.0" encoding="UTF-8"?>
<VTKFile type="UnstructuredGrid" version="0.1" byte_order="LittleEndian">
<UnstructuredGrid>
<Piece NumberOfPoints="9053" NumberOfCells="17586">
<PointData>
<DataArray type="Float64" Name="Color" Format="ascii">
8.958771638262244E20
8.577873576284195E20
8.570531084616835E20
8.555924960483836E20
9.265131276283633E20
8.517006583523217E20
8.531737461869863E20
8.544713769648925E20
8.869096953778847E20
8.517826663890336E20
8.520984254401724E20
8.576248909990628E20
9.11210495753281E20
8.571502354482663E20
8.553482052411218E20
8.55886545127741E20
9.13507950180642E20
9.033910335251403E20
8.534618750434442E20
8.518799061888345E20
8.487959727397886E20
8.436789690118511E20
8.396886120372695E20
8.466499842864116E20
9.074372489032497E20
9.088716760611522E20
8.355524060403557E20
9.777419574661909E20
9.518887181729375E20
1.0331298437825365E21
1.0133683949653447E21
4.118111795982469E20
7.518957743427597E20
7.011230380656317E20
4.5073812926986827E20
3.2718941077810256E20
1.159382569788014E20
1.3339498261367174E20
8.244126382941663E20
8.38836727804267E20
7.962061366938366E20
8.316651687352563E20
7.976683496014184E20
1.3607081603978908E20
4.336057251022933E20
7.277005700318415E20
8.483705784910942E20
8.463851678951004E20
8.421026513258617E20
8.434108423582032E20
8.737253934368792E20
8.457813449297305E20
8.35782407043306E20
8.359726742741164E20
6.46602340381065E20
3.4918586120649526E20
7.997994128432701E19
8.53042329690598E19
8.618731438321692E19
8.408940106550528E19
3.0325038352982055E20
8.413686335899331E20
8.509657795825437E20
8.493404691717555E20
8.475073818199955E20
8.449459362408464E20
5.697364263002686E20
8.128438213158917E20
7.689984567431078E20
1.629797423825854E20
7.295166758094749E20
4.293098564320106E20
4.243241770090923E20
7.170199644344393E20
1.6667579508293878E20
4.1967283711456176E20
7.199086507708825E20
7.042095165709302E20
1.4307733942632233E20
8.198185451038249E20
8.275254631154233E20
8.250078607369058E20
8.387185622524228E20
8.389514919313782E20
8.319539388342685E20
8.342588875266131E20
8.245052173029696E20
8.247078266559307E20
8.11599628409726E20
8.211061004556762E20
8.32985113551159E20
8.129565757145855E20
8.188902405248819E20
8.098288694466544E20
8.054546415694312E20
8.139741527052322E20
8.259354846153394E20
7.939607464488963E20
8.664534867301962E20
8.109744714613381E20
8.016175757915871E20
8.161043913917428E20
8.079768791405642E20
7.987993482546807E20
9.504113271233641E20
9.211621058318441E20
9.877943032198803E20
8.453565255751664E20
8.379470613990331E20
8.366922062041932E20
8.338498199424247E20
8.830955506991858E20
8.236716646015591E20
8.274094804582897E20
8.984005873695206E20
8.223668375485962E20
1.0889143858091001E21
1.0930720506666021E21
1.1550035507689935E21
1.0254137301767722E21
1.0068598686296581E21
1.771322845373124E20
1.619336372263124E20
1.2402167092564579E20
1.7518174780675484E19
4.008025305528517E19
1.580023641652563E20
3.4631205768515125E20
3.4418814296384255E20
1.8803167015047254E19
1.86306285587168E20
3.886292667881354E19
1.834658127344965E19
3.4983223815816774E20
1.917565620174912E20
4.238423325052922E19
3.5430448558592524E20
1.9385352244028454E20
4.608014695477011E19
9.64360278020649E20
1.531130187101746E20
4.147041574339732E20
6.972562957212612E20
4.033048639160095E20
1.3896175134557856E20
7.669917584311598E20
7.540244279922827E20
6.966904685440183E20
3.870527774206966E20
7.982948177198796E20
7.995227063434293E20
7.761914098820035E20
7.92445232201461E20
7.805525798500549E20
7.835345201851063E20
7.758375962942231E20
8.474402004818665E20
9.47259890043095E20
7.642560790285459E20
7.560222467958588E20
8.231230000605833E20
4.5557277178954785E19
1.8584636046861785E20
2.3853253769000973E20
2.212634117424641E20
3.557996315148616E20
3.497139192123257E20
2.000258569727834E20
1.9906944647920035E20
3.432853269166583E20
1.953535208971376E20
4.268470084758398E19
1.9962262640117914E20
3.4638936184580165E20
4.841234367558649E19
3.4356796961360714E20
5.28405877109734E19
4.623489804033806E19
3.423599677677553E20
3.658166480209405E20
3.680925143111838E20
3.4889514551027066E20
4.560936627814453E19
1.9206294408934762E20
3.6661904804600355E20
3.4311358454705875E20
1.9459790801677215E20
4.981825170945226E19
4.931481414126062E19
1.9541837197928094E20
3.5827053329339915E20
1.9760693847944728E20
4.913969017595933E19
3.753537511426925E20
2.046740536310206E20
3.717153400444422E20
3.799721804954112E20
2.1072752599470444E20
5.1029743133565805E19
3.3785643991228763E20
6.086526985832834E20
3.459253866700609E20
1.1164599049184587E20
3.312880095545623E20
5.7551251691426814E20
1.0951460445167732E20
5.6301806306844895E20
1.0288418778788222E20
6.956248538616272E20
6.837794794519732E20
6.729394791871442E20
7.370770497510943E20
8.293162539407155E20
1.1267827756073408E21
1.1126594521299064E21
8.022527552411299E20
9.330372501202117E19
8.887139074015457E20
8.833130558567859E20
8.171188489021522E20
8.104251244865565E19
8.355888851628381E19
7.610911527486713E19
7.560392563714833E19
2.7933020828055395E20
7.854410914287424E19
5.363463495649002E20
1.0333461817381567E21
9.498518900994832E20
8.44716732874841E20
7.462390787991194E20
8.844794377330191E20
7.310305914617506E20
7.184386736635405E20
7.11190729945015E20
7.971036152037031E20
8.101444026493083E20
7.986510456692623E20
9.581198465901776E19
9.300517463633833E19
7.846875483125814E20
8.149625451167038E19
7.851351501325516E20
7.852651805701548E20
8.55980624621984E19
7.874842979885558E20
3.863094336508953E20
3.889346739088327E20
3.914418755509153E20
3.8385129277899846E20
3.8837558986385084E20
3.722841553457269E20
3.6614063928716847E20
3.703217736484907E20
3.7217204036740737E20
3.663375473533378E20
4.4240331183869624E19
2.0056694536814412E20
3.6180780957112815E20
4.331427377705693E19
3.7610083481168694E20
3.7731262162218674E20
3.682002872629915E20
3.6739462963740856E20
3.723627315373946E20
3.7587284654647155E20
3.744758318060475E20
3.7236541221176495E20
3.7693513812357317E20
3.7562554588672197E20
3.670740018699307E20
3.730388291520841E20
3.786118665703423E20
3.559542514411452E20
4.537997563884987E19
3.734385260938731E20
3.7960302302138814E20
1.0563436262489579E21
1.0870027955033562E21
7.922878404108274E20
7.80685611372089E20
1.0295320774592334E21
9.784566507126194E20
1.2357379398706064E21
1.267733489873555E21
1.2300297478956106E21
1.21243833606414E21
1.2906396099092365E21
1.3543790797184626E21
1.360723353672257E21
1.4807449541128657E21
9.929947423607317E20
1.115427932543285E21
1.2216276620198048E21
1.1441168698880157E21
1.9058280393527063E19
5.782703852896854E18
9.1403215842543667E18
9.706707768870423E18
2.6940509034160947E19
2.4388982283876962E19
1.7697334730265725E19
2.4334703935164453E19
1.183956886674291E19
7.643279966477711E20
1.287010937118634E20
7.66892323444827E20
7.40046055874222E20
7.49626156179222E20
7.508853500158278E20
7.678514529027076E20
7.233609334332137E20
1.2838576164375586E20
6.718232640115655E20
3.785507195160939E20
8.171160094712976E19
8.53366034849678E19
8.380603568541167E19
3.1604863552943817E20
1.0425732314736971E20
7.568119824791954E20
7.693488283057196E20
7.059532936021304E20
6.465782239678406E20
1.3079810289842256E20
3.682044249401244E20
7.116853511590252E20
6.86611096430474E20
6.42797733700073E20
3.5513132795205675E20
1.2741303396248873E20
6.255155204396738E20
1.2295528195769953E20
7.457876438764493E20
7.394765596011506E20
7.248732213834332E20
7.090308028680929E20
7.294533924268356E20
6.920130582235719E20
6.693397966052188E20
6.675085770234073E20
6.74606582511297E20
6.543100018084092E20
6.895661736357935E20
6.459970528704967E20
6.605076175798153E19
6.361952947051976E19
6.821371449604916E19
1.0334415664034516E21
6.718478101680235E20
6.927551262760466E20
7.04023966921796E20
7.134860888123975E20
7.423888403642879E20
7.21895706182895E20
7.160168472261903E20
7.560881566606632E20
7.255908562748697E20
7.368905030205655E20
7.450642273754592E20
7.340612024194837E20
7.532155479456231E20
7.820207373680977E20
8.073643475012754E20
7.722729205407399E20
9.24094938017731E20
8.927730161644009E20
2.8772506606830056E20
3.718925136943934E20
3.723324664829864E20
3.808978777074584E20
3.78676137868897E20
3.752740729333798E20
3.7694328593629735E20
3.834544694061423E20
3.8104492621655133E20
3.782992942911909E20
3.700449318587004E20
2.246046100634232E19
2.832190905670751E19
2.2508221090540425E19
2.6294254207623594E19
2.71592954581493E19
1.435232911556981E20
2.426217598967402E19
2.46152638471518E19
2.6921611311983657E19
2.1412412177820336E19
2.0107773692750262E19
1.0695499336652672E20
3.386316541522847E20
3.741940023560768E20
3.7775828768270556E20
3.842570066998326E20
2.822916587175045E19
7.745022748411888E19
2.708353187378409E20
8.024598040339613E19
2.6023075235864278E20
4.69363312808671E20
4.527684299152499E20
7.678929421873314E19
2.5200736646620424E20
5.403846226895585E19
2.1469287162854044E20
3.874911384543365E20
2.188449370201547E20
5.686302970406284E19
4.026087561781284E20
4.130126847771306E20
4.9604720712542316E20
4.8309430761185E20
3.97075516094047E20
2.2191675226225456E20
6.7156545086364E19
2.2999100825603844E20
4.220437538998905E20
2.3370981814272482E20
6.799712156708458E19
3.952730088302393E20
4.059732578383694E20
3.892362510076976E20
3.0004098034731012E19
2.7357661273513116E19
3.155411810263266E19
4.461128900324956E20
4.392506356713209E20
4.3470742521256005E20
4.6665406709162934E20
4.5054036166767E20
4.577871544136987E20
4.793731108604909E20
4.714493316879145E20
4.5810900401080127E20
4.7052260780006434E20
5.98372451474348E19
5.444930004707801E20
3.053964827437988E20
6.240799068235732E20
6.053219617678635E20
6.723248897980147E20
6.677872653918642E20
6.83009538099915E20
6.614806346055051E20
6.503669438896667E20
6.471731957910645E20
6.416267519271219E20
6.10559493296231E20
5.982751855914003E20
5.8942224783096414E20
6.420891381277772E20
4.8151097512401876E20
4.729176650648839E20
4.677856109623836E20
4.865064825915414E20
4.710812008633383E20
4.63722511757943E20
4.933005876092104E20
4.749174946455769E20
4.963528864684662E20
5.0239153613541704E20
4.9193233586298336E20
5.080446984393571E20
5.1845642118241957E20
5.350930443454911E20
5.246770931704793E20
5.1218014900129346E20
4.901440266481117E20
5.598280161398635E20
5.707159991669024E20
5.792852258099422E20
5.049891012309259E20
5.216544708209652E20
5.168525321513062E20
5.069913268110351E20
5.0045441716393234E20
5.431674795349078E20
5.2906396562012576E20
5.4635614255516385E20
5.537220781278725E20
5.243881779600553E20
5.3319938526196164E20
5.416164251516617E20
5.617569754950942E20
5.3207940232547146E20
5.1425003136065674E20
5.392950537869279E20
5.4908749611255064E20
6.008384963140192E20
6.195559329247882E20
5.509531972817122E20
5.817073806583598E20
8.165120694557595E20
7.925525987402592E20
7.039140807730653E20
6.983804140300333E20
7.009042607039024E20
6.895930651122749E20
6.808052956824099E20
7.150029805743263E20
6.33248101571991E20
5.6080655458538285E20
5.7278214089187295E20
5.793159658816937E20
5.920980960347128E20
5.990014692135278E20
5.652449872661889E20
5.8435924733031226E20
5.876672874704781E20
6.536208554562844E20
6.616707626387187E20
6.867351913241107E20
6.469080902197114E20
6.402875163869018E20
6.302054351067864E20
6.19170438863037E20
6.653201212927355E20
6.071836940123454E20
6.501918789239019E20
6.579459015624204E20
5.966576475587162E20
6.246896609875663E20
6.040798901606332E20
6.165349650683584E20
7.595526333130687E20
5.565288595730119E20
5.6732060577538513E20
5.7637554287208674E20
1.538707237171567E21
1.6560194503219827E21
1.553030409421572E21
1.4218684021974992E21
1.4423763988024302E21
1.2333515761371544E21
1.141478179097224E21
1.281529520642998E21
8.91750594172378E20
9.808132672080688E20
7.270514913045569E20
8.247461442806519E19
9.843873767651458E20
8.201223542016778E19
8.169722192547422E19
1.0122544301281812E20
9.975563096614232E19
3.0378598764003144E20
8.753602350448225E19
3.141072178820691E20
1.1498148421715283E20
1.055307628286511E20
5.438880362423046E20
1.1019719933263335E21
7.51204301736025E20
7.623741743687565E20
7.432138285551328E19
6.313321203567019E19
7.885917547218434E19
9.313279594720308E19
8.12871270366937E19
7.317156788477961E19
7.936788517728779E19
4.148979719810088E20
4.227616681477005E20
4.329832304864604E20
4.340977994897476E20
4.320004108895375E20
4.434943936690159E20
4.594963041946392E20
4.399340947183018E20
4.379900356944203E20
4.4283062116185584E20
4.327757785343782E20
4.362785292633427E20
4.260145647389731E20
4.545286456173542E20
4.501218215978493E20
4.443318655191417E20
4.5607925662798375E20
4.6140992538255904E20
4.518709289818044E20
4.4770024486904273E20
3.8857314212368266E20
3.856075560920598E20
3.827986156843559E20
3.9285795121029494E20
3.962204681593458E20
3.9874573672315925E20
3.935553870232536E20
3.944862913435712E20
4.010424278276641E20
4.1703724209900093E20
4.195542084927633E20
4.1141428832863394E20
4.086258074459696E20
4.280244453607751E20
4.0262141635797215E20
4.1346777664595054E20
4.059054597012059E20
3.968185016485664E20
4.295501953787788E20
4.238606376019197E20
4.203607842215033E20
4.247086992491764E20
4.54970344943795E20
4.1488917391772136E20
4.1185385898415384E20
4.156954705615857E20
4.118054398909061E20
4.009814046752896E20
4.4408159117811935E20
4.083419119030853E20
4.043175961387846E20
4.221835448431286E20
3.732376262775259E20
3.992415441493513E20
4.2254371800239106E20
3.9781616273136085E20
4.013787005444179E20
4.0333247515594097E20
4.0544404391006876E20
3.968267513679329E20
3.7934265857349806E20
3.8145113814889234E20
3.924056663276802E20
3.853920204547514E20
3.852117517972784E20
3.875862527879939E20
3.846055657327229E20
3.7956703263696454E20
3.822737154930989E20
3.854589976900645E20
3.9043807853114655E20
3.9496248840514096E20
3.8931578199088385E20
2.465853804061224E19
1.1989170461151107E21
1.161133862938658E21
1.4245371971911392E21
1.2724886019953485E21
1.3126372870788096E21
1.4779248397983998E21
1.4477942748812151E21
1.5264162907049611E19
2.961553574661908E18
6.5772769752305654E18
1.1820779464536984E19
5.9850508422167091E18
2.2343968558028063E19
2.107698481297361E19
1.7864569370475608E19
1.3357135240994339E19
1.037206515763734E19
7.306759570175562E20
8.452297567061031E19
7.334875535068682E19
7.435311160311724E19
7.245242583284054E19
7.153656680468758E19
5.692754935563613E19
5.261231499389093E20
4.912977306406219E20
5.131953665022131E20
2.756474794199106E20
1.0183229546232318E20
2.9442277290019498E20
4.968492007787478E20
2.8460554998273314E20
8.209182803931531E19
5.167009515329292E20
9.581110771700348E19
5.510395163536796E20
5.5051525909648566E20
5.339520992430991E20
5.338470240538411E20
4.617679335983252E19
4.7089605476115186E19
5.673034162846279E20
5.7016850380332106E20
5.918783557886955E19
4.918755899801049E19
4.722738997914049E19
6.006688742846807E19
5.631948873565098E19
6.720566142776229E19
6.469503981284884E19
6.222317972169319E19
5.435597415405798E19
6.237858502908477E19
1.1215474040231449E21
1.0029036224404669E21
8.405522411932048E20
8.694409110193648E20
9.701490489059567E20
9.380009486607386E20
2.407374906599201E20
2.1160679782753055E19
2.0592007057235214E19
2.1235731315062477E19
9.218475136736364E19
2.119663037691407E19
2.2660579274090594E19
3.285044478881448E20
1.808038416560971E20
1.7199178670559314E19
2.056566223360772E19
1.8077515231216222E19
3.4467913063085454E20
3.861346147769961E20
2.1156847521571377E19
2.4733138397410718E19
2.7071441365014893E19
2.6011845639249625E19
2.4146604006666325E20
4.39648866082573E20
6.843275146921162E19
5.165731255320316E20
5.0023904436726484E20
4.542602681396313E19
4.129307949033489E19
4.382546306520784E20
4.641186471480608E20
4.552357497753277E20
4.67801399857658E20
4.817057037061493E20
4.774693955527716E20
4.850918250611584E20
4.5783383598925775E20
4.457042448173508E20
3.136364940817424E19
3.076287885908133E19
4.133971313368926E20
4.2392809954713646E20
4.4388942204803586E20
4.064995486580839E20
5.912829828348953E19
3.4328980535868183E19
6.026887261382288E19
3.714572314300563E19
3.3839695943589482E19
3.720818520957777E19
3.958784004740101E19
3.811263372591179E19
2.78684245519194E19
2.519059314395603E19
4.3374533407674106E20
4.91554432578036E20
5.069978285681413E20
4.1905808911303764E20
5.221136744391451E20
4.6959055826653695E20
4.768819502878468E20
4.832775127823991E20
5.88499855964499E20
6.108539363764917E20
6.298350105979738E20
5.858074662033181E20
6.050845082807808E20
5.919581566685277E20
6.265359877094484E20
6.194924473408705E20
7.339993486712453E20
7.13223064651754E20
6.839356522157812E20
5.295879502299641E20
5.419919018556979E20
5.472081011361585E20
4.9701651541929447E20
5.1341467891321537E20
5.662014731641852E20
4.9049667860614264E20
4.9764275291430224E20
4.850747520956307E20
5.087583728889854E20
5.2510996212146536E20
5.384449804010426E20
6.159192567530234E20
6.623499504259085E20
6.4047127623343E20
5.759991749118269E20
5.964290846578695E20
9.039577065863909E20
8.737754179981509E20
8.468402084754546E20
6.12339194701027E20
6.284338625572814E20
6.376386453955046E20
8.181979880010914E20
1.4590709756533513E21
1.5879316277515148E21
1.7445500870975682E21
1.7684403685852822E21
1.9227836334825663E21
1.6151038714367758E21
2.0378186267995204E21
1.770877268822769E21
1.6319122766847712E21
2.0831295453868246E21
2.3292617169286592E21
1.650797379945835E21
1.4175482449409456E21
1.3788705804469624E21
5.493602327278429E20
1.2965734391997925E20
1.1966069249595997E20
3.543921634862657E20
6.12915084744147E20
9.47515211885763E20
1.2612607167256003E21
1.0641853455782297E21
7.761458970773274E20
8.507504121490651E20
1.403061064409096E21
9.717119265521223E19
1.3404008704201667E20
1.3176139461427711E20
1.0303151799455565E20
1.0665034708055227E21
1.0576395004020711E20
9.70820431478442E19
7.665285669541591E19
7.930513162135403E19
8.040873261708675E19
9.178271229254604E19
7.145470018055777E19
9.288464918328933E19
8.735171149585179E19
4.2207774376067275E20
4.2921668416847656E20
3.907588866723079E20
3.998225677874748E20
4.186252760162927E20
4.069260710110372E20
4.1014767564857796E20
4.337900424541026E20
4.773682631009774E20
4.3552034068617606E20
4.6423269787372034E20
4.4857603690828576E20
4.169053364056572E20
5.137503938930026E20
2.1163648357936288E19
3.978560681010542E20
3.919085064183439E20
2.22061456494611E19
2.2299767737819455E19
1.8027639150645905E19
2.495565852675056E21
2.7473062832464147E21
1.3358300980501094E21
1.2964147243181788E21
1.2491173687192492E21
1.6339329087355358E21
1.3385897338725958E19
2.19969701843326541E18
4.8010129990511247E18
9.706705839458585E18
4.316362200236222E18
1.20556434982598758E18
1.887096620438205E19
2.0113297902664577E19
1.5088559225653623E19
1.5585850085935766E19
1.5816529421874102E19
9.1623920304586752E18
1.4904612977074493E19
1.2321063512817764E19
5.302517054666293E20
5.496369479704691E20
5.70493290441171E20
6.288564835524304E19
7.339313664597852E19
7.971859134358263E19
6.1664134407927E19
6.246840343147459E19
6.263474169546335E19
5.2449724927347876E19
5.258480194218919E19
5.0195075394277564E19
4.270980625965599E19
4.3529541098536624E19
4.2988008580296335E19
4.1805072317035995E19
4.7129697092043874E19
6.201228264283822E19
5.830252469665955E19
5.669883400359568E19
5.070772885072986E19
5.142550631767424E19
6.237137013932695E19
6.1178341539555975E19
6.266821807500769E19
1.0939806408219326E21
1.2110288866608769E21
9.817187791816503E20
1.0109570202814454E21
1.0569651918398799E21
4.20800375416945E19
2.2839077834918457E19
8.78009906897425E19
2.3063842448106942E19
2.623115146103024E20
7.860393052099604E19
1.9937509930559177E19
1.8683255078067507E19
1.7112157661635334E19
1.7281019971026167E20
3.118466432235064E20
2.349181866979836E19
2.0088926770209223E19
3.646943325087554E20
4.0406552163342595E20
2.2745064751876895E19
2.635715183989997E19
2.530804518872945E19
2.413766313058093E19
3.8334721453952066E19
3.6200806645498774E19
3.821312471884722E19
3.1222329044710846E19
2.672086101435495E19
3.192871190296552E19
3.009004093374883E19
2.9920327107044684E19
3.130448278808317E19
3.5637130200041325E19
3.5301943181711258E19
2.65723151152999E19
2.6327618481220882E19
2.815783426317354E19
2.6682368846742045E19
2.673190690007263E19
5.994877011548463E20
5.901290892146126E20
6.216675000989705E20
6.444809730524673E20
7.859399236752388E20
7.301999665006328E20
7.613183503996731E20
7.019452982972222E20
5.582408902409672E20
6.107220487581586E20
6.66846846745224E20
6.319224046432497E20
6.572183812131747E20
6.817752635681366E20
7.511287950340209E20
9.486256098110771E20
8.796650482793947E20
9.153083535962606E20
8.474786231063747E20
7.787543159823481E20
8.114972508782482E20
9.486104336297413E20
1.8686901298207714E21
1.6630841961841636E21
1.8918888485497117E21
2.414012464340017E21
2.8276614489907853E21
2.0573251918893886E21
1.882641691964427E21
2.1903619748111295E21
1.6451171658065697E21
1.5313069907657414E21
1.1014471195999012E20
1.2053842713197122E20
3.69615131790763E20
1.5521448869711692E20
1.6295533913469587E21
1.1609571524611527E21
9.631440581564384E20
7.418323309461724E20
1.1891891419120287E21
1.3096019905284714E21
1.4182343285786783E21
1.3546251803455403E21
1.5339878162500154E20
1.625799458485414E20
1.1196947762973709E20
8.652595615387853E19
7.834354487475606E19
8.544009778486265E19
1.0370661077754887E20
4.4087745429035804E20
4.9763563190821605E20
4.6126472394337373E20
4.793261560410544E20
4.378165944071994E20
5.5426808876997955E20
4.656987880422794E20
5.348778537151798E20
5.7525492002934627E20
7.773037081678681E19
2.8061313167745864E19
2.061967201814811E19
2.113164864406853E19
2.115684977005438E19
2.1965320258615472E19
2.050993936259406E19
2.2317075611195412E19
1.6994297858037594E19
1.789690428116151E19
1.7963346191462132E19
1.8490071480023904E19
2.620831086547854E21
2.9525775336826093E21
3.2285920385535254E21
3.183992975781068E21
3.461665262693734E21
1.666001579422719E21
1.4622734376439233E21
1.400590885554594E21
1.0680314431953374E21
1.109591206576087E21
1.358189195230331E21
1.1549312059045638E21
1.3072634641965213E21
1.269969284343858E21
2.4563830866382773E21
2.1250257033834925E21
1.8857381619318939E21
1.9513380590922163E21
2.198981492889623E21
4.0711884042369111E18
7.9825520230606684E18
9.333206921783314E18
4.9095239944752087E18
1.33052586018999219E18
1.8253766865895864E19
1.947306566863028E19
1.275144645089759E19
1.7119432480140732E19
1.7818815425428556E19
1.4373492972847806E19
1.2130672360744978E19
8.292834199382439E20
5.7985386108350844E20
6.29767566179944E20
6.539505426338531E20
7.956294614447372E20
7.940625582935843E19
7.121216050464187E19
5.994544987080546E19
6.5317521191810834E19
5.205274635854636E19
4.710614697674014E19
3.992573990752955E19
4.7632595723462115E19
5.2848727109717254E19
5.568327750876629E19
6.037976634488212E19
6.592466272299103E19
7.012732185394429E19
3.607078173705857E19
3.777476234769969E19
3.412721187281257E19
4.5261377750240756E19
4.442424306678424E19
1.6086885694185262E20
2.383537680073142E20
1.5399282547544975E20
2.968911367200492E20
3.4457724642504265E20
3.846156331447851E20
4.29290342507901E20
3.5374968121541054E20
2.2287250803653833E19
8.072570699955606E19
1.540502409866301E20
1.893219600977572E19
2.4242722873169412E19
2.7153893432897212E19
2.493843227466447E19
2.3577338898220462E19
3.1180381687413092E19
3.495034799860813E19
3.3903758751155323E19
3.074558449031583E19
2.7344709153037636E19
3.2283551526823133E19
3.464810845081366E19
3.6543038614402204E19
3.20207825568007E19
3.034838625546581E19
7.099140399071336E20
6.787868957582454E20
1.550097007713868E20
4.084944974094554E20
6.963434695757114E20
7.368300989458123E20
7.247161894405827E20
7.695727283365933E20
9.823914463619057E20
1.0257996540652913E21
1.057190288904528E21
1.112618938957535E21
9.102805796835192E20
8.674012869988224E20
1.0163942359376907E21
9.564263710945035E20
9.227454819480957E20
2.9890103195171506E21
1.7654530473959146E21
1.9772436623802035E21
1.9804930763459587E21
2.278917303345473E21
2.548215635381732E21
1.8177599151278937E21
1.8918925795108318E21
1.4716274399124208E20
1.3804674058839417E20
1.5412503559305196E20
2.7428657171721378E20
5.23745346628745E20
2.387567654140312E20
2.758547039905727E21
2.2466582192200564E21
7.935001757811359E20
1.1469101860158006E21
1.410462150703331E21
1.647080335315225E21
2.1375492277982066E21
1.9472068592456746E21
2.106993486144984E20
1.1287437247174556E20
8.773910737380401E19
1.023142308103007E20
1.0694732802992313E20
1.0282090713877262E20
5.1390157636494184E20
4.9214931570273426E20
4.677291564225194E20
4.5974325789832426E20
4.9796014456517906E20
6.062143533369818E20
4.992413908790981E20
6.248195701845392E20
5.531660974395175E20
5.975225341779934E20
2.047191286277952E19
2.759844627114752E19
3.106836305990079E19
2.1639215515671958E19
2.0706840551380947E19
2.3947533045389066E19
2.3371581422298956E19
2.3924650079782154E19
2.373833810538644E19
8.242636293768628E19
3.306498820905024E21
3.599424496368645E21
4.011359710460514E21
3.617702342411105E21
3.0894058048171053E21
3.845907718710713E21
2.8528909973297556E21
3.9536057328409096E21
3.73796602814988E21
4.161363699772837E21
4.998144595219772E21
4.46357237555037E21
4.3578444574052576E21
5.260698619926231E21
1.1955864714500676E21
1.1575465793962869E21
1.9500229027712485E21
1.6340843822206587E21
1.5320846523074617E21
1.4734837934759165E21
1.4289510624351295E21
1.2931252068335173E21
1.357570535261903E21
2.6844907128806703E21
3.179209454566366E21
2.099837415984493E21
2.3284473474935457E21
2.427069095728791E21
2.735734769802516E21
2.1745718724898972E21
2.526757543064507E21
2.2762301428359905E21
2.1450448842059916E21
2.3859113517925317E21
7.4609507197900687E18
4.0500691865260728E18
1.92082931276886861E18
9.421971802667608E18
4.4334781688726042E18
1.6656357143781669E19
2.442997253554314E19
1.6649428430007108E19
1.3052473320571685E19
1.7600534735036828E19
1.9614194218022097E19
1.3595372146377521E19
1.3883835857475985E19
4.3397089974995318E18
7.7912056658425375E18
1.60525789501610906E18
4.2524236617883715E18
1.2399336876920752E19
8.776036484087872E20
6.571080131990705E20
6.837728151445922E20
7.172900172004895E20
7.493482335120287E20
7.825179962703947E20
8.491438281656637E20
8.179998746034973E20
6.274251638869293E19
8.297946816012208E19
7.012128968316876E19
7.699687389593009E19
5.3268642523974795E19
5.617528040197374E19
5.695598575329044E19
4.539623855972582E19
5.052833422453814E19
6.029567077124505E19
5.498773666690506E19
6.319616383422139E19
7.132686447790731E19
3.4267894670047564E19
4.024150416568785E19
5.099424151343126E19
4.897643812401044E19
4.2052376705458864E19
4.458048583480331E19
2.3239991936598465E20
2.265249559645766E20
3.000669080772923E20
3.583795528958321E20
4.920374815617491E20
4.5440954027930046E20
4.0993639725710436E20
4.169281303772893E20
3.021535880129752E20
1.571044157892079E20
2.3483251917765748E20
2.7103464955586572E19
2.4758112712219333E19
2.5684796473475305E19
2.5625217898358227E19
3.735668154309284E19
3.3184772171689628E19
4.073027078432531E19
3.4321477721957564E19
3.4950602197613203E19
4.028773237803641E19
3.5173682443094405E19
3.213490871740711E19
4.7009850546026E19
3.471195702229505E21
2.7261908636470555E21
1.0208811651979955E21
1.563501406882924E21
1.1145364363898597E21
2.631003385882161E20
2.356717551374425E20
6.126954797511497E20
3.064031845598915E20
1.2612846347678644E21
1.2075565253490773E21
1.1425569213137047E21
1.0768504570071788E21
9.91815537865105E20
1.033028932451357E21
3.8700735330991897E21
2.383847816454858E21
1.1621519420374252E20
1.5944365881508073E20
1.9250689244395746E20
1.3869214589823967E20
2.292849791577662E20
2.7460765745492158E20
2.6694824064300623E20
2.5663983254112604E21
2.420552471723966E21
2.8156718506719445E20
1.156217553443084E20
9.636722229446615E19
1.0577900336161174E20
7.710762056410789E19
9.036405971256838E19
1.4128737795203162E20
4.0623401294642864E19
4.647614124962313E19
7.189593519413998E20
5.252753927133583E20
5.366159660005402E20
5.3420470701837727E20
5.65037141138183E20
6.849072779323585E20
6.498021220186796E20
6.1076499921846E20
2.557487620928723E19
2.6621872667838296E19
2.3148181250839966E19
1.624109237175239E20
2.947929599221126E19
2.6322436845627216E19
2.7194100524236292E19
3.734740267647719E19
3.5421479174398366E19
3.489477436878789E19
2.9468769025358123E19
2.284451030187455E19
2.4741088759461106E19
2.5917788902310908E19
2.5242770865473126E19
8.225788226071221E19
3.5690840746340054E21
4.4237452743792494E21
4.5232047917944013E21
5.350097465813891E21
1.9747099739818445E21
8.050700221541718E20
3.517690714455303E20
6.025946498964227E21
5.517441224172436E21
6.345672617884211E21
5.219794039165407E21
4.826482150426442E21
5.78324040797559E21
6.286594585205606E21
6.494613991827795E21
4.592356819577831E21
6.143922537141758E21
5.55531769214353E21
4.750166912343834E21
5.678363107313618E21
1.8139938105194027E21
1.7334600471675404E21
2.0806801765119694E21
1.6405383166497257E21