<?xml version="1.0" encoding="UTF-8"?>
<VTKFile type="UnstructuredGrid" version="0.1" byte_order="LittleEndian">
<UnstructuredGrid>
<Piece NumberOfPoints="9053" NumberOfCells="17586">
<PointData>
<DataArray type="Float64" Name="Color" Format="ascii">
8.992737264682568E20
8.61037153777771E20
8.601406657007374E20
8.587867564651032E20
9.300235985282782E20
8.549626302119903E20
8.563591611340194E20
8.577296614893251E20
8.903495754889472E20
8.550353427395446E20
8.553095885318462E20
8.608467233794817E20
9.14766785881779E20
8.604665342372651E20
8.586572256796077E20
8.591539556056106E20
9.1707847250228E20
9.069310712489464E20
8.566735517252252E20
8.551284386154811E20
8.5203493491896E20
8.469083403360048E20
8.429143344511804E20
8.499288902466394E20
9.109357392424104E20
9.123631208945939E20
8.387281284019613E20
9.816338350639605E20
9.556102122188487E20
1.0373384343912911E21
1.0174842035031131E21
4.134924327770166E20
7.546084726896694E20
7.038643227890365E20
4.524841439777684E20
3.2850333116218094E20
1.1662484806907473E20
1.3405160367089369E20
8.275767749330829E20
8.420675801524454E20
7.993482911228707E20
8.34818955646315E20
8.006422236762672E20
1.3686869100834369E20
4.352842384948847E20
7.302321079601693E20
8.515863967053181E20
8.496353480919037E20
8.453150465675953E20
8.465721191638709E20
8.771597448834154E20
8.491058687679576E20
8.38945584066103E20
8.390587567698822E20
6.492159590330145E20
3.506841672841101E20
8.037494084952144E19
8.579924297001234E19
8.664453867178813E19
8.455813636564886E19
3.0457047526723885E20
8.444771714149721E20
8.541562404832222E20
8.525246319408441E20
8.506818297756436E20
8.481350326637948E20
5.721575718584714E20
8.161554064855289E20
7.722356947655948E20
1.6391341129983273E20
7.320670888303661E20
4.309617853347942E20
4.2593832197315055E20
7.19521827848384E20
1.6757088458926434E20
4.212471072336994E20
7.22450231251514E20
7.066497180232168E20
1.4380239083031893E20
8.228663793756091E20
8.305910689976517E20
8.280720482495613E20
8.418570638051195E20
8.420677583414339E20
8.350035129494173E20
8.373528323248405E20
8.275371055957167E20
8.277793939037732E20
8.145820800440427E20
8.241366890389975E20
8.360890201817095E20
8.159684590467077E20
8.219527982462566E20
8.129264345756436E20
8.085087305090277E20
8.170237945209552E20
8.290247012711781E20
7.969636988311499E20
8.697734091668805E20
8.140710027365905E20
8.046270807712727E20
8.191748398984778E20
8.109968152327284E20
8.017908377076872E20
9.542372332362682E20
9.248892470651845E20
9.917753080011323E20
8.485683292508186E20
8.41168061121006E20
8.398773449783447E20
8.370118812008921E20
8.864922229343824E20
8.267763213947792E20
8.305015881351437E20
9.018331711507206E20
8.25458043254741E20
1.0934475766214989E21
1.0975656031808805E21
1.159876013529828E21
1.0295103763405077E21
1.0108477641719199E21
1.7759489025656144E20
1.6239986994361975E20
1.2435710432590471E20
1.760034718172394E19
4.025819503765645E19
1.5846874838150103E20
3.472636073553074E20
3.450810208365253E20
1.8888041764971213E19
1.868331083811341E20
3.90380192049387E19
1.8426708573938532E19
3.5076594112802554E20
1.9229684195183863E20
4.257958268467959E19
3.552488139994946E20
1.944112448397957E20
4.628485569261875E19
9.682030192717275E20
1.5393114971970798E20
4.16261804191722E20
6.99747281765897E20
4.04820077995852E20
1.3965661106806845E20
7.697551585124259E20
7.56795577751467E20
6.991636601401382E20
3.884964971709611E20
8.01257126778482E20
8.024744875154849E20
7.790641704697587E20
7.953718692504897E20
7.834459398200134E20
7.864731446289125E20
7.787065999558476E20
8.506451543739858E20
9.509924483311132E20
7.670664578783462E20
7.587702432113052E20
8.261989362968464E20
4.5731237578783785E19
1.863655077195042E20
2.3917922063118808E20
2.2189812753338905E20
3.5674096878053746E20
3.506674020389845E20
2.006194973684416E20
1.9964505048063358E20
3.4419401194018197E20
1.9591228215220083E20
4.287889196123567E19
2.002109779332146E20
3.473316110847731E20
4.863036358183125E19
3.445086358846137E20
5.307422454169437E19
4.643598500147436E19
3.432710831635119E20
3.668650489290198E20
3.6914627016338545E20
3.498755481380037E20
4.581061712392608E19
1.9261894311317353E20
3.676824672743879E20
3.4403054708370106E20
1.951576684155929E20
5.002904042643362E19
4.953987878856933E19
1.959789136023437E20
3.5921856168167E20
1.9817162118332223E20
4.936052630413636E19
3.764031528632061E20
2.0526599683567344E20
3.727556676021869E20
3.810143809924531E20
2.113565576012929E20
5.1274576621990306E19
3.3905494271069625E20
6.106646075003108E20
3.471642684632753E20
1.1222644834888124E20
3.324547829911097E20
5.77375634218486E20
1.1008030547522906E20
5.648629673209832E20
1.033762642186571E20
6.981226892493221E20
6.862277297413802E20
6.753234955236128E20
7.397533991518002E20
8.324121908373613E20
1.1315599241943938E21
1.117325621624964E21
8.051719330959035E20
9.383787118162243E19
8.923483913852372E20
8.870345640400717E20
8.201240837963357E20
8.146318520871041E19
8.400624923007897E19
7.650494211046236E19
7.60006304467319E19
2.805812233049453E20
7.894890398842105E19
5.387030955214687E20
1.0376717394935483E21
9.538519440240412E20
8.479083862589523E20
7.495048963197225E20
8.883362804014432E20
7.336663093310407E20
7.210427290842029E20
7.13750195401738E20
7.999728906580404E20
8.13095421353172E20
8.015866108914738E20
9.636506841678768E19
9.34932812275647E19
7.875184283002697E20
8.19611053205966E19
7.880033766100656E20
7.88166029104855E20
8.607197529975982E19
7.903761147400061E20
3.874385324356838E20
3.90077156514912E20
3.9256829815972764E20
3.849655780908468E20
3.895422156609563E20
3.7335788506993184E20
3.6718311070702705E20
3.7138811523816496E20
3.732528818061154E20
3.6741199379770474E20
4.445608614333175E19
2.0116716895487515E20
3.627896496537863E20
4.3522090405978415E19
3.77209182953136E20
3.784250549373072E20
3.692241790121096E20
3.6845172171621446E20
3.7341942629620325E20
3.769560885417308E20
3.7560146809836726E20
3.734578303218143E20
3.7802959751496814E20
3.7671427722222194E20
3.6814625544977193E20
3.741462516886142E20
3.7975936289506905E20
3.5691623060423724E20
4.5592703763757105E19
3.745104071583108E20
3.8070773335955046E20
1.0606663794519419E21
1.091420638066477E21
7.952448985765746E20
7.835834853576835E20
1.0339403174988663E21
9.824945113528015E20
1.2411660744702548E21
1.273397078711373E21
1.2352805602404307E21
1.2176799002264663E21
1.2962164122397838E21
1.3603515173085205E21
1.3666999158410117E21
1.4874398055386236E21
9.969486854204357E20
1.1199876800744599E21
1.2267793805204618E21
1.1488598948822133E21
1.9137309838694412E19
5.8068545190457129E18
9.1792248361751511E18
9.750128258063632E18
2.7066755239628177E19
2.4506206606352187E19
1.7783391144986677E19
2.444498954687658E19
1.1893457234578897E19
7.671085336627282E20
1.293587145330141E20
7.696907157141758E20
7.427491281144435E20
7.523337423555208E20
7.536030287476916E20
7.706671140676474E20
7.259629331189958E20
1.2900531119210927E20
6.741833557026547E20
3.799682719296248E20
8.215621106554475E19
8.57813923224427E19
8.425905512987664E19
3.1713357476066866E20
1.0477304840472481E20
7.595455362874958E20
7.721744971714096E20
7.084841484509972E20
6.487775939104923E20
1.3147703503022829E20
3.695582157734241E20
7.142541241993007E20
6.890579455884524E20
6.449785075815734E20
3.564164545090968E20
1.2807088932095438E20
6.276051273550051E20
1.2357395376830213E20
7.484783753079967E20
7.421457572068633E20
7.275119301150962E20
7.115802741110338E20
7.321161024766035E20
6.944887747653915E20
6.716975327906873E20
6.698893650011925E20
6.770239794480362E20
6.565939063855206E20
6.920428843638477E20
6.482251757647958E20
6.6387677061009646E19
6.3927804368859824E19
6.857707293778614E19
1.0376495934455513E21
6.742335857336767E20
6.952334633502152E20
7.06541696227123E20
7.160486277400375E20
7.450554024625848E20
7.244816451324865E20
7.185784684752766E20
7.588287111352708E20
7.281886734057271E20
7.39536427801664E20
7.477353639826572E20
7.366808352657109E20
7.559355130185338E20
7.848821298277787E20
8.103588952717406E20
7.750897144462648E20
9.277132938676854E20
8.961790659911593E20
2.8856507564856485E20
3.7294453539493885E20
3.7340860920228735E20
3.819981561948553E20
3.797580479784449E20
3.7639420029628626E20
3.78054307531627E20
3.8459861033315756E20
3.821606056150166E20
3.7938535855837754E20
3.7113791684304287E20
2.25700317911855E19
2.843416514569146E19
2.261783950627661E19
2.6412329009608688E19
2.7269423672604623E19
1.4394129450848317E20
2.4380020730214216E19
2.4727734949820273E19
2.7048682738282664E19
2.151765545972079E19
2.019026690035345E19
1.0727670896100037E20
3.3964105944696095E20
3.753042837148478E20
3.7884936308851586E20
3.853682763330162E20
2.8353978874203247E19
7.782511939019599E19
2.7173846658726232E20
8.0645895376885E19
2.610844423457902E20
4.7080045310773264E20
4.5414193431672095E20
7.71438591002437E19
2.528309395179017E20
5.4279795025996325E19
2.153307079552272E20
3.885827473835297E20
2.1949409369786453E20
5.712914884282705E19
4.03793136053652E20
4.1428620467951573E20
4.9761617251306675E20
4.8462368184484554E20
3.982030696363076E20
2.2259381157027634E20
6.745732422317945E19
2.3070232024101025E20
4.232777393694761E20
2.3444616589219424E20
6.831006296066745E19
3.9643339115438414E20
4.072047196651248E20
3.903837602989688E20
3.013477582508497E19
2.7477927403367723E19
3.1696237504010064E19
4.474628071065628E20
4.406251745916269E20
4.36045399121273E20
4.681040368149216E20
4.519460427745073E20
4.5921146575954385E20
4.808674092440323E20
4.729508798475924E20
4.5952069458036575E20
4.7200119560898065E20
6.013757602415481E19
5.4622048352452785E20
3.064369089312582E20
6.262011612418646E20
6.073776308989561E20
6.747143713864193E20
6.701541140988592E20
6.854453892360406E20
6.638095423642871E20
6.526591856291885E20
6.494420269992993E20
6.438590151926335E20
6.126294530636876E20
6.003152930288372E20
5.914027169494895E20
6.442959497222547E20
4.8301813541407156E20
4.7439668830108746E20
4.6929274481483606E20
4.8804601984035055E20
4.725613007276212E20
4.6518102687399444E20
4.9485845486821435E20
4.7643801610452946E20
4.9793197697567995E20
5.0401837916280567E20
4.935822763844442E20
5.0972338229401046E20
5.20125710177266E20
5.3684047223262334E20
5.264057256079956E20
5.13832242160783E20
4.917092460780849E20
5.617066551433075E20
5.7262336470374004E20
5.8122660814856605E20
5.0663674635401776E20
5.2336735620344624E20
5.185183612459906E20
5.086366156241697E20
5.0204865156838634E20
5.449600182760438E20
5.3079592368985466E20
5.481703765524978E20
5.555796775525993E20
5.2609378092537905E20
5.349534204935579E20
5.434163107990929E20
5.6362294196357844E20
5.338144792803771E20
5.159422144704015E20
5.410718926324126E20
5.509080676900182E20
6.028801296513844E20
6.216678648819467E20
5.527772305842432E20
5.836651102616544E20
8.195622325416759E20
7.95502767712033E20
7.064485976401468E20
7.009027840231388E20
7.034193746835054E20
6.920765590097667E20
6.832321126822517E20
7.175789243032829E20
6.35462157894244E20
5.626932736524029E20
5.747142125865828E20
5.812876042282763E20
5.941019545939529E20
6.01047418569219E20
5.6714997625630805E20
5.863612277820233E20
5.8966702768154E20
6.559289278279895E20
6.640106664252157E20
6.891635518451943E20
6.49169435296443E20
6.425264035307778E20
6.323864568180526E20
6.212994421950567E20
6.676496516148142E20
6.092908782938814E20
6.52460351580861E20
6.602744919578867E20
5.986958637637452E20
6.268740666938267E20
6.061734491713908E20
6.186609244126675E20
7.623207965441213E20
5.5842033107155714E20
5.6925217707006814E20
5.7835417417319665E20
1.545739350497047E21
1.663717249726952E21
1.5602259792771943E21
1.4283951198142362E21
1.4490453518872753E21
1.2385097052905823E21
1.146476540245337E21
1.287372486343913E21
8.957694258234494E20
9.851688293547458E20
7.303269887938183E20
8.294224711751115E19
9.887047839111443E20
8.247457425691016E19
8.215387767292566E19
1.0177745277825825E20
1.0033243865240392E20
3.0523175243654365E20
8.802863329856958E19
3.156512756322449E20
1.1561992972399026E20
1.0611795500802966E20
5.464318699848243E20
1.1068966006584862E21
7.538779678937822E20
7.650967387385067E20
7.470213936724874E19
6.344436118584913E19
7.929920599731257E19
9.366702219451707E19
8.173916075721902E19
7.354722413462183E19
7.979096261432856E19
4.161893583784416E20
4.240754749774086E20
4.342964769546327E20
4.354855272642731E20
4.3336736794247043E20
4.448918319943209E20
4.609470942892207E20
4.413610196365719E20
4.394227760802391E20
4.442490939762457E20
4.340887683780554E20
4.376697597082728E20
4.2736092962482966E20
4.559517818890969E20
4.51474163016108E20
4.457370803601177E20
4.575257693934201E20
4.628520904350252E20
4.532949132564104E20
4.491021955817845E20
3.8973229291127485E20
3.867852927430616E20
3.839575373486958E20
3.940616677621509E20
3.97410297253129E20
3.999552637742878E20
3.947746560874779E20
3.95632283842428E20
4.0225907114748936E20
4.183319437556785E20
4.20873753393187E20
4.126940900472568E20
4.099033413209372E20
4.2935792290791195E20
4.038884832441212E20
4.147853942900879E20
4.0714657527413506E20
3.9800123558670664E20
4.3084952155272826E20
4.251874022455834E20
4.2163148150747215E20
4.2598896323804116E20
4.564007472145073E20
4.161583432805136E20
4.1309722989963674E20
4.1695713780468154E20
4.1303081571839764E20
4.021430957734841E20
4.454623679917395E20
4.095562139093211E20
4.0549073186755333E20
4.234429902707094E20
3.743650916309059E20
4.004886778064703E20
4.238399642264249E20
3.990314840654387E20
4.025986443380424E20
4.045161254814845E20
4.066907118160935E20
3.9801378995559485E20
3.8045436652611096E20
3.825852726018535E20
3.9357597599539495E20
3.865338338599416E20
3.863721705809495E20
3.888325755840732E20
3.857786102757878E20
3.806985715201137E20
3.834296960045358E20
3.8661169699212486E20
3.9162074629273027E20
3.961602253141101E20
3.9048617990816904E20
2.4766180173013004E19
1.2040210929886662E21
1.1660346727707555E21
1.4309190439664702E21
1.2778783783056093E21
1.318290343809765E21
1.4845980014961036E21
1.4542641384440246E21
1.534056714683489E19
2.9759609277063188E18
6.6062286717476362E18
1.1880662090216841E19
6.0100056672596695E18
2.244994796174383E19
2.1175745574120686E19
1.79434522245988E19
1.34100814699143E19
1.0414797553158015E19
7.333082419861372E20
8.502260843174361E19
7.372946684902063E19
7.47392670420191E19
7.2855447627980464E19
7.195224447502887E19
5.720988259717378E19
5.277699847366711E20
4.92819468343801E20
5.148370060830155E20
2.7654964977230594E20
1.0233886340343898E20
2.954207755474683E20
4.98371159489459E20
2.855525947876631E20
8.251757065083203E19
5.183222856650011E20
9.628217814702334E19
5.528794565689832E20
5.5234644948335146E20
5.357015148092577E20
5.356338187661968E20
4.642416617914965E19
4.732857510295212E19
5.6919533968488484E20
5.721171456402807E20
5.95141189638883E19
4.941907907617744E19
4.745662477603479E19
6.036915228985422E19
5.6589161979701666E19
6.757968926380595E19
6.507420447197534E19
6.255930992733402E19
5.463930568211786E19
6.272479497502636E19
1.1262134213001663E21
1.0069243618869746E21
8.437049246346202E20
8.727485686896106E20
9.739543109441725E20
9.416435567433916E20
2.4144656736093572E20
2.1263461501676155E19
2.0695382651074073E19
2.132626678860657E19
9.246945381312635E19
2.1290843988422554E19
2.275966051115141E19
3.2948697935895953E20
1.813690790585916E20
1.7270567987836668E19
2.066518283953576E19
1.8164124743039785E19
3.457289032587703E20
3.873572905523264E20
2.124741316005542E19
2.4843272920576295E19
2.719266505032643E19
2.6125911029319946E19
2.4225510651995226E20
4.409657185837876E20
6.877316251123598E19
5.182781104086684E20
5.018714219315367E20
4.565296917493943E19
4.150699501161759E19
4.395588813276239E20
4.6557557160480453E20
4.5664256927208315E20
4.6926867945466836E20
4.8323351247011814E20
4.790063455393278E20
4.8665493361685515E20
4.592547304791427E20
4.47102182880057E20
3.151230016789846E19
3.0929510234233737E19
4.146727992035115E20
4.2525565361314746E20
4.4525839273137275E20
4.076566737225163E20
5.941488136446077E19
3.4496361380343075E19
6.056729112593181E19
3.733589633827998E19
3.4014384984063906E19
3.7370085063427826E19
3.977934524690228E19
3.830750659717245E19
2.799567571125916E19
2.5321288664300073E19
4.3510733866763806E20
4.9312655765638395E20
5.086262463921861E20
4.203391574508822E20
5.2381133995927516E20
4.7109073504431224E20
4.784055183071689E20
4.8482301985726025E20
5.904832883316235E20
6.129541985511498E20
6.320159517085156E20
5.8780707897129986E20
6.071593368502184E20
5.939862590690313E20
6.287044480343326E20
6.216351453994359E20
7.366476253057931E20
7.157819738607991E20
6.863450867920639E20
5.3133127857884837E20
5.4377763615372155E20
5.4904148655500696E20
4.986466994560216E20
5.151021551834822E20
5.681219349447408E20
4.9209358164474914E20
4.992744746588602E20
4.866137266748024E20
5.1039919295178336E20
5.268248158856954E20
5.4020763631577655E20
6.18043723685216E20
6.646759882531559E20
6.427053437932167E20
5.779301641726318E20
5.984610768786305E20
9.074426465194765E20
8.771132242790355E20
8.500528911516174E20
6.144317904458628E20
6.306186227766438E20
6.398500813553543E20
8.212611106908127E20
1.4659982132834822E21
1.595245474764785E21
1.752816899243737E21
1.7768615843460114E21
1.9321167423046788E21
1.6227460979133595E21
2.0479479915471362E21
1.7792619906264001E21
1.639511450812829E21
2.093613389642953E21
2.3412894529849317E21
1.6587063523728915E21
1.4238177595070213E21
1.38494807228096E21
5.520135363405419E20
1.3038653630854904E20
1.2032889391810609E20
3.5621533114915966E20
6.160055381064772E20
9.519335824371109E20
1.2671795267791573E21
1.069114894551244E21
7.798158565970793E20
8.549491038016526E20
1.4099560278071168E21
9.769057256015346E19
1.3480893733810628E20
1.3251084367696368E20
1.036253753536219E20
1.0717479323614376E21
1.0634820400593202E20
9.762044871736577E19
7.708231305189695E19
7.97110353400787E19
8.082975660729827E19
9.22915137988245E19
7.183118316094912E19
9.337884342484758E19
8.781355881237068E19
4.2336876311202175E20
4.306484096230883E20
3.919219400217507E20
4.0106380515555384E20
4.1992915204436754E20
4.0815794748731064E20
4.114351150129513E20
4.3511913541810985E20
4.788993507331628E20
4.368668160229378E20
4.656851994427803E20
4.499673959947485E20
4.1824534903686214E20
5.154387840464925E20
2.1254641559672754E19
3.990624085165156E20
3.930796290989947E20
2.2314540134749827E19
2.2404403074853847E19
1.8109424382461608E19
2.508761061423026E21
2.762010068317551E21
1.341706238167541E21
1.3020857082546076E21
1.2545073191212032E21
1.641574312530881E21
1.3451263281546267E19
2.20948331818228198E18
4.8200959903185316E18
9.752760836736377E18
4.3335584250869192E18
1.21014788377627571E18
1.894899899429533E19
2.020507951307832E19
1.5158983558397479E19
1.5659522082028505E19
1.5892995296727364E19
9.2051483501796884E18
1.4966623622467533E19
1.2372743024569942E19
5.3201417114754476E20
5.514866694754044E20
5.7244065036091884E20
6.320159562959086E19
7.382619978371362E19
8.017000105642752E19
6.1982095761878655E19
6.279551776734877E19
6.2988292626311995E19
5.271988758608176E19
5.2871031473233895E19
5.0467443094463906E19
4.2924874464659505E19
4.376946503620784E19
4.3190600495380046E19
4.201022203058914E19
4.738287881325423E19
6.232043197619073E19
5.8588235884104114E19
5.6997618372169376E19
5.095037752777028E19
5.167180421130821E19
6.26929833983134E19
6.148021636957272E19
6.299204199356335E19
1.0984761160631946E21
1.2161840024442972E21
9.856190123083085E20
1.0149854761267614E21
1.0612368454205468E21
4.228760526075888E19
2.294340565592649E19
8.80910337638123E19
2.3164256758631944E19
2.631232261727346E20
7.885839188886594E19
2.002760519801301E19
1.875965282014881E19
1.7193402716412117E19
1.7336455947666194E20
3.128507905246819E20
2.359983659218975E19
2.0170633076163957E19
3.6588821491039705E20
4.053764607968803E20
2.2860286164898525E19
2.6488101728507163E19
2.5428903605345317E19
2.4263899732262883E19
3.85232258070353E19
3.6395600335346086E19
3.8407881018841604E19
3.1380074055020024E19
2.686502402002044E19
3.209603572637649E19
3.0216471776771932E19
3.008008780975944E19
3.1462003249834054E19
3.5823028953072103E19
3.5475042643191386E19
2.6702687678485213E19
2.6456011059132273E19
2.830165010572804E19
2.680088511211831E19
2.6849328087681237E19
6.015854747523728E20
5.92160999296551E20
6.238546159020729E20
6.46774635712778E20
7.88846000574606E20
7.328404960301407E20
7.64125523285419E20
7.044566737367723E20
5.601060355661556E20
6.128298170847267E20
6.692177058693014E20
6.341170174197392E20
6.595381786403176E20
6.842199935263856E20
7.538945813388438E20
9.523653757415718E20
8.830484073855589E20
9.188818586793747E20
8.50721223964666E20
7.816421972792486E20
8.14569585276184E20
9.523721672443346E20
1.8779228405905299E21
1.6712893565696507E21
1.9013755021331129E21
2.4265678255017354E21
2.8427234546263644E21
2.0675019688297075E21
1.891739741047981E21
2.2017354813736126E21
1.652766087678978E21
1.538251726913904E21
1.1075301461878687E20
1.212127653282032E20
3.71610344455098E20
1.5610584434897755E20
1.6380942949728327E21
1.166926704900873E21
9.6819999600989E20
7.458331563960182E20
1.194914496980363E21
1.3163175879341876E21
1.4257390309973264E21
1.3619209996629904E21
1.5429705538385245E20
1.6353277536583297E20
1.1258670221757682E20
8.699138489147731E19
7.876380552655992E19
8.590501496996895E19
1.0428403129767833E20
4.423017163917009E20
4.992779522255557E20
4.6274441313307505E20
4.808846522988565E20
4.392667945328016E20
5.561507680839606E20
4.67234980947727E20
5.36696078919549E20
5.772587253761557E20
7.798801586972058E19
2.818721937238658E19
2.0710067114415428E19
2.12211218869057E19
2.1255155204931154E19
2.207207240562459E19
2.0593813450899673E19
2.241484179161324E19
1.7069070753856109E19
1.79803677451144E19
1.802790088983635E19
1.8568024821600485E19
2.6350741025687696E21
2.96871394331334E21
3.246425265799092E21
3.201928698105723E21
3.480983424918662E21
1.6738115116251787E21
1.468871348180262E21
1.4068196102429433E21
1.0724286609377218E21
1.1141949598313227E21
1.364185887908524E21
1.1597434551385513E21
1.3129333387908337E21
1.2754648255067385E21
2.469057642257285E21
2.1355651627567945E21
1.894855531808636E21
1.9607712387733355E21
2.209912175924935E21
4.088742317047063E18
8.0167965716228475E18
9.3730537885864E18
4.9323921497930557E18
1.33653236528167398E18
1.8342485676371053E19
1.955881551650452E19
1.2811898375574135E19
1.7191534537922714E19
1.7896931823560292E19
1.4437286900744096E19
1.218532842048607E19
8.324357505696253E20
5.818624874168142E20
6.320286501137362E20
6.563096994735079E20
7.986381597618553E20
7.984603871919038E19
7.158609575624782E19
6.023643422330181E19
6.564717756944991E19
5.233951821985029E19
4.7346587250035384E19
4.009170300562957E19
4.788514961106706E19
5.3128113855367774E19
5.59664429764885E19
6.069083338630274E19
6.627296990963687E19
7.049262870093997E19
3.625623485532343E19
3.794872530880157E19
3.4279933263921975E19
4.550858800175421E19
4.463600311820452E19
1.61401009863797E20
2.3913791799898653E20
1.545081298750446E20
2.9789391077195796E20
3.4572266180814884E20
3.859180694390151E20
4.3074665737685244E20
3.549746952908272E20
2.238455252443097E19
8.10121618267494E19
1.545835868502592E20
1.901553670405469E19
2.4361023343306076E19
2.7276139962995323E19
2.5045190249808003E19
2.3679732638117523E19
3.133234684869057E19
3.5110298572048044E19
3.406408469775293E19
3.088832365247168E19
2.7467770279269356E19
3.243114709869534E19
3.4814739473784926E19
3.6714321015768125E19
3.217979870539175E19
3.049242661744502E19
7.125349712002213E20
6.812603028113105E20
1.5592261510627698E20
4.108353111244089E20
6.988295106203168E20
7.395442240827431E20
7.273377013845864E20
7.724397563366777E20
9.863293936197793E20
1.0299610860057002E21
1.0615333778070287E21
1.1172878558133526E21
9.138246600311438E20
8.707542044923051E20
1.020507779928704E21
9.602177848365879E20
9.263675327715582E20
3.0050980074281406E21
1.775119009310579E21
1.9878349773430687E21
1.9908914548664343E21
2.2911539955371158E21
2.5613030833844037E21
1.826461272684406E21
1.9011062729079888E21
1.480225476210162E20
1.3883152825079698E20
1.5504117163776963E20
2.7599759634614292E20
5.2690373194042265E20
2.4026020625672513E20
2.7738959249995496E21
2.2592503813460819E21
7.979868498215632E20
1.1532916611974733E21
1.4186768743098375E21
1.6564209595212347E21
2.1499349247066828E21
1.958994646569058E21
2.1199716007817547E20
1.1349467338659016E20
8.821043540113059E19
1.0291689866307766E20
1.0755957087187526E20
1.0342187565321118E20
5.156514802637158E20
4.938108737046654E20
4.693081171851587E20
4.6131977736533783E20
4.996645699200531E20
6.083761476223281E20
5.00943080122782E20
6.270781093669313E20
5.5510130888420675E20
5.996371376666951E20
2.0552853144608944E19
2.7720431036276736E19
3.121331414560273E19
2.173918679074878E19
2.0801408262613676E19
2.4058499985933693E19
2.3469447820437066E19
2.4030301856383734E19
2.3846930793939616E19
8.272706562438727E19
3.325859528558007E21
3.6198070407543144E21
4.0342008892505116E21
3.6380218551899296E21
3.1059662478995887E21
3.8689415032091045E21
2.869327572293675E21
3.97779781063131E21
3.7588969580146716E21
4.1854149463966477E21
5.027962707010316E21
4.489994682930056E21
4.383338150157938E21
5.292553383441943E21
1.2006882179110008E21
1.1624332269641527E21
1.9595944159946793E21
1.6417970570136768E21
1.5390865776465451E21
1.4800942960213012E21
1.4353683084119806E21
1.2988049318589602E21
1.36358669061636E21
2.698452939853743E21
3.1963066674047557E21
2.1103363414455692E21
2.3402260730244332E21
2.439477307093493E21
2.750007961426177E21
2.1854941956074376E21
2.539768108960753E21
2.2877737764606527E21
2.1557222235772507E21
2.398026087038923E21
7.4917991729508956E18
4.0665125150077414E18
1.92974894437356928E18
9.467458969054579E18
4.452160079732714E18
1.673726916601556E19
2.4547297545852383E19
1.6720419414080887E19
1.3114107390133144E19
1.7678582775101372E19
1.9700491009591226E19
1.3656921335778312E19
1.3943676763512685E19
4.3581695149187825E18
7.8236982355152968E18
1.61277756744014054E18
4.2702465734370278E18
1.245191689541117E19
8.810194126028868E20
6.595213526161036E20
6.862954780076413E20
7.199711152131213E20
7.52165035224815E20
7.855009385468856E20
8.524713442456958E20
8.211731787053202E20
6.303564736113023E19
8.34342287362945E19
7.047218812475382E19
7.740289916562373E19
5.355108162069315E19
5.645275409532086E19
5.723729747584401E19
4.562335093452142E19
5.079355853813382E19
6.0608150207804514E19
5.526785355588982E19
6.351779367504541E19
7.1700398800520634E19
3.4413548367633814E19
4.043355167829741E19
5.125025917670006E19
4.923333261119171E19
4.224932921633525E19
4.478822867643742E19
2.3319481479996863E20
2.2729418255147994E20
3.010952667674219E20
3.596364065152103E20
4.9377875810936685E20
4.560169516592896E20
4.113615847936873E20
4.184384814975697E20
3.03218868005645E20
1.5768203632446226E20
2.3568144490828923E20
2.7224794060316365E19
2.4869019378064642E19
2.579817075954273E19
2.574810735593295E19
3.755547437592315E19
3.3339080199364477E19
4.095370646958245E19
3.4486305252954173E19
3.5119537260426297E19
4.048313120773868E19
3.534641850649384E19
3.2275996960612487E19
4.7241377554106384E19
3.4921393753977934E21
2.742275079543733E21
1.0269782819325515E21
1.5730473022277867E21
1.1215597074476998E21
2.648504166508357E20
2.372116566070553E20
6.16684231378048E20
3.085238411262206E20
1.266815531265467E21
1.2127452636903186E21
1.1473313715909242E21
1.0812684030746455E21
9.958922415672007E20
1.0372981440624511E21
3.8918907040807786E21
2.3970358693449286E21
1.1689355784543026E20
1.6037756983642427E20
1.936859700774287E20
1.3948912684505765E20
2.3069213545402594E20
2.7637429889352332E20
2.6871372766610506E20
2.582007267943091E21
2.4359145093269784E21
2.833986169891129E20
1.1630401847842885E20
9.69089751617721E19
1.0635572345030966E20
7.752256469276574E19
9.086465747328711E19
1.421390458451706E20
4.0828095688748425E19
4.671997846591541E19
7.216674606069468E20
5.271322433797235E20
5.385156840327616E20
5.3602163914353666E20
5.6698053977974525E20
6.874675485596624E20
6.52213225944134E20
6.129769243600614E20
2.5687378435460207E19
2.67430352654429E19
2.3245524589536285E19
1.6301032631543592E20
2.9617462019386143E19
2.643929481214784E19
2.7317209593623732E19
3.753021964199227E19
3.55822885431824E19
3.506299584399999E19
2.959914323273413E19
2.295104644157089E19
2.4852570588862136E19
2.6030578733630427E19
2.5355878393068683E19
8.256976691715257E19
3.591405844472066E21
4.452042249145589E21
4.5533106904600223E21
5.38530842003766E21
1.987606076526313E21
8.107315745999547E20
3.5432169072414196E20
6.067235643547781E21
5.556652817330065E21
6.388381846307304E21
5.253290410914346E21
4.856499866050997E21
5.818784930820666E21
6.32491491685718E21
6.53510698549913E21
4.619519302265958E21
6.183017526201174E21
5.589547653346276E21
4.778190161958101E21
5.713539444799859E21
1.8226725391867312E21
1.7415540094120485E21
2.0908889422463322E21
1.6481958786570893E21